
     Program BANDS v.7.0 starts on 19Dec2024 at  6:12:39 

     This program is part of the open-source Quantum ESPRESSO suite
     for quantum simulation of materials; please cite
         "P. Giannozzi et al., J. Phys.:Condens. Matter 21 395502 (2009);
         "P. Giannozzi et al., J. Phys.:Condens. Matter 29 465901 (2017);
         "P. Giannozzi et al., J. Chem. Phys. 152 154105 (2020);
          URL http://www.quantum-espresso.org", 
     in publications or presentations arising from this work. More details at
     http://www.quantum-espresso.org/quote

     Parallel version (MPI & OpenMP), running on       2 processor cores
     Number of MPI processes:                 1
     Threads/MPI process:                     2

     MPI processes distributed on     1 nodes
     368 MiB available memory on the printing compute node when the environment starts


     Reading xml data from directory:

     ./outputs/si.save/
     Message from routine volume:
     axis vectors are left-handed
     file Si.pbe-n-kjpaw_psl.1.0.0.UPF: wavefunction(s)  3S 3P renormalized

     IMPORTANT: XC functional enforced from input :
     Exchange-correlation= PBE
                           (   1   4   3   4   0   0   0)
     Any further DFT definition will be discarded
     Please, verify this is what you really want


     G-vector sticks info
     --------------------
     sticks:   dense  smooth     PW     G-vecs:    dense   smooth      PW
     Sum         733     733    211                12939    12939    2085

     Using Slab Decomposition

     Reading collected, re-writing distributed wavefunctions
     high-symmetry point:  0.5000 0.5000 0.5000   x coordinate   0.0000
     high-symmetry point:  0.0000 0.0000 0.0000   x coordinate   0.8660
     high-symmetry point:  0.0000 1.0000 0.0000   x coordinate   1.8660
     high-symmetry point:  0.0000 0.7500 0.7500   x coordinate   2.6566
     high-symmetry point:  0.0000 0.0000 0.0000   x coordinate   3.7173

     Plottable bands (eV) written to file Si_bands_wo_soc.dat.gnu
     Bands written to file Si_bands_wo_soc.dat

 **************************************************************************

                    xk=(   0.50000,   0.50000,   0.50000  )

     zone border point and non-symmorphic group 
     symmetry decomposition not available

 **************************************************************************

 **************************************************************************

                    xk=(   0.47500,   0.47500,   0.47500  )

     point group C_3v (3m)  
     there are  3 classes
     the character table:

       E     2C3   3s_v 
A_1    1.00  1.00  1.00
A_2    1.00  1.00 -1.00
E      2.00 -1.00  0.00

     the symmetry operations in each class and the name of the first element:

     E        1
                                                                 
     2C3      2    3
                                                                 
     3s_v     4    5    6
                                                                 

     Band symmetry, C_3v (3m)   point group:

     e(  1 -  1) =     -3.46262  eV     1   --> A_1  L_1       
     e(  2 -  2) =     -0.71557  eV     1   --> A_1  L_1       
     e(  3 -  4) =      5.01067  eV     2   --> E    L_3       
     e(  5 -  5) =      7.74628  eV     1   --> A_1  L_1       
     e(  6 -  7) =      9.55044  eV     2   --> E    L_3       
     e(  8 -  8) =     13.94807  eV     1   --> A_1  L_1       

 **************************************************************************

 **************************************************************************

                    xk=(   0.45000,   0.45000,   0.45000  )

     Band symmetry, C_3v (3m)   point group:

     e(  1 -  1) =     -3.56134  eV     1   --> A_1  L_1       
     e(  2 -  2) =     -0.57049  eV     1   --> A_1  L_1       
     e(  3 -  4) =      5.02414  eV     2   --> E    L_3       
     e(  5 -  5) =      7.76175  eV     1   --> A_1  L_1       
     e(  6 -  7) =      9.56572  eV     2   --> E    L_3       
     e(  8 -  8) =     13.97143  eV     1   --> A_1  L_1       

 **************************************************************************

 **************************************************************************

                    xk=(   0.42500,   0.42500,   0.42500  )

     Band symmetry, C_3v (3m)   point group:

     e(  1 -  1) =     -3.70600  eV     1   --> A_1  L_1       
     e(  2 -  2) =     -0.34869  eV     1   --> A_1  L_1       
     e(  3 -  4) =      5.04655  eV     2   --> E    L_3       
     e(  5 -  5) =      7.78746  eV     1   --> A_1  L_1       
     e(  6 -  7) =      9.58992  eV     2   --> E    L_3       
     e(  8 -  8) =     14.00787  eV     1   --> A_1  L_1       

 **************************************************************************

 **************************************************************************

                    xk=(   0.40000,   0.40000,   0.40000  )

     Band symmetry, C_3v (3m)   point group:

     e(  1 -  1) =     -3.87857  eV     1   --> A_1  L_1       
     e(  2 -  2) =     -0.06840  eV     1   --> A_1  L_1       
     e(  3 -  4) =      5.07790  eV     2   --> E    L_3       
     e(  5 -  5) =      7.82330  eV     1   --> A_1  L_1       
     e(  6 -  7) =      9.62106  eV     2   --> E    L_3       
     e(  8 -  8) =     14.05229  eV     1   --> A_1  L_1       

 **************************************************************************

 **************************************************************************

                    xk=(   0.37500,   0.37500,   0.37500  )

     Band symmetry, C_3v (3m)   point group:

     e(  1 -  1) =     -4.06499  eV     1   --> A_1  L_1       
     e(  2 -  2) =      0.25606  eV     1   --> A_1  L_1       
     e(  3 -  4) =      5.11811  eV     2   --> E    L_3       
     e(  5 -  5) =      7.86908  eV     1   --> A_1  L_1       
     e(  6 -  7) =      9.65620  eV     2   --> E    L_3       
     e(  8 -  8) =     14.09373  eV     1   --> A_1  L_1       

 **************************************************************************

 **************************************************************************

                    xk=(   0.35000,   0.35000,   0.35000  )

     Band symmetry, C_3v (3m)   point group:

     e(  1 -  1) =     -4.25554  eV     1   --> A_1  L_1       
     e(  2 -  2) =      0.61459  eV     1   --> A_1  L_1       
     e(  3 -  4) =      5.16707  eV     2   --> E    L_3       
     e(  5 -  5) =      7.92452  eV     1   --> A_1  L_1       
     e(  6 -  7) =      9.69124  eV     2   --> E    L_3       
     e(  8 -  8) =     14.10751  eV     1   --> A_1  L_1       

 **************************************************************************

 **************************************************************************

                    xk=(   0.32500,   0.32500,   0.32500  )

     Band symmetry, C_3v (3m)   point group:

     e(  1 -  1) =     -4.44379  eV     1   --> A_1  L_1       
     e(  2 -  2) =      1.00027  eV     1   --> A_1  L_1       
     e(  3 -  4) =      5.22462  eV     2   --> E    L_3       
     e(  5 -  5) =      7.98924  eV     1   --> A_1  L_1       
     e(  6 -  7) =      9.72086  eV     2   --> E    L_3       
     e(  8 -  8) =     14.04268  eV     1   --> A_1  L_1       

 **************************************************************************

 **************************************************************************

                    xk=(   0.30000,   0.30000,   0.30000  )

     Band symmetry, C_3v (3m)   point group:

     e(  1 -  1) =     -4.62548  eV     1   --> A_1  L_1       
     e(  2 -  2) =      1.40818  eV     1   --> A_1  L_1       
     e(  3 -  4) =      5.29048  eV     2   --> E    L_3       
     e(  5 -  5) =      8.06269  eV     1   --> A_1  L_1       
     e(  6 -  7) =      9.73858  eV     2   --> E    L_3       
     e(  8 -  8) =     13.80567  eV     1   -->   ?

 **************************************************************************

 **************************************************************************

                    xk=(   0.27500,   0.27500,   0.27500  )

     Band symmetry, C_3v (3m)   point group:

     e(  1 -  1) =     -4.79772  eV     1   --> A_1  L_1       
     e(  2 -  2) =      1.83461  eV     1   --> A_1  L_1       
     e(  3 -  4) =      5.36424  eV     2   --> E    L_3       
     e(  5 -  5) =      8.14412  eV     1   --> A_1  L_1       
     e(  6 -  7) =      9.73731  eV     2   --> E    L_3       
     e(  8 -  8) =     13.51702  eV     1   --> A_1  L_1       

 **************************************************************************

 **************************************************************************

                    xk=(   0.25000,   0.25000,   0.25000  )

     Band symmetry, C_3v (3m)   point group:

     e(  1 -  1) =     -4.95856  eV     1   --> A_1  L_1       
     e(  2 -  2) =      2.27650  eV     1   --> A_1  L_1       
     e(  3 -  4) =      5.44533  eV     2   --> E    L_3       
     e(  5 -  5) =      8.23250  eV     1   --> A_1  L_1       
     e(  6 -  7) =      9.71057  eV     2   --> E    L_3       
     e(  8 -  8) =     13.12348  eV     1   --> A_1  L_1       

 **************************************************************************

 **************************************************************************

                    xk=(   0.22500,   0.22500,   0.22500  )

     Band symmetry, C_3v (3m)   point group:

     e(  1 -  1) =     -5.10657  eV     1   --> A_1  L_1       
     e(  2 -  2) =      2.73101  eV     1   --> A_1  L_1       
     e(  3 -  4) =      5.53291  eV     2   --> E    L_3       
     e(  5 -  5) =      8.32641  eV     1   --> A_1  L_1       
     e(  6 -  7) =      9.65419  eV     2   --> E    L_3       
     e(  8 -  8) =     12.69754  eV     1   --> A_1  L_1       

 **************************************************************************

 **************************************************************************

                    xk=(   0.20000,   0.20000,   0.20000  )

     Band symmetry, C_3v (3m)   point group:

     e(  1 -  1) =     -5.24078  eV     1   --> A_1  L_1       
     e(  2 -  2) =      3.19521  eV     1   --> A_1  L_1       
     e(  3 -  4) =      5.62578  eV     2   --> E    L_3       
     e(  5 -  5) =      8.42391  eV     1   --> A_1  L_1       
     e(  6 -  7) =      9.56806  eV     2   --> E    L_3       
     e(  8 -  8) =     12.25581  eV     1   --> A_1  L_1       

 **************************************************************************

 **************************************************************************

                    xk=(   0.17500,   0.17500,   0.17500  )

     Band symmetry, C_3v (3m)   point group:

     e(  1 -  1) =     -5.36042  eV     1   --> A_1  L_1       
     e(  2 -  2) =      3.66565  eV     1   --> A_1  L_1       
     e(  3 -  4) =      5.72230  eV     2   --> E    L_3       
     e(  5 -  5) =      8.52234  eV     1   --> A_1  L_1       
     e(  6 -  7) =      9.45660  eV     2   --> E    L_3       
     e(  8 -  8) =     11.80676  eV     1   --> A_1  L_1       

 **************************************************************************

 **************************************************************************

                    xk=(   0.15000,   0.15000,   0.15000  )

     Band symmetry, C_3v (3m)   point group:

     e(  1 -  1) =     -5.46497  eV     1   --> A_1  L_1       
     e(  2 -  2) =      4.13790  eV     1   --> A_1  L_1       
     e(  3 -  4) =      5.82021  eV     2   --> E    L_3       
     e(  5 -  5) =      8.61801  eV     1   --> A_1  L_1       
     e(  6 -  7) =      9.32786  eV     2   --> E    L_3       
     e(  8 -  8) =     11.35680  eV     1   --> A_1  L_1       

 **************************************************************************

 **************************************************************************

                    xk=(   0.12500,   0.12500,   0.12500  )

     Band symmetry, C_3v (3m)   point group:

     e(  1 -  1) =     -5.55400  eV     1   --> A_1  L_1       
     e(  2 -  2) =      4.60566  eV     1   --> A_1  L_1       
     e(  3 -  4) =      5.91647  eV     2   --> E    L_3       
     e(  5 -  5) =      8.70569  eV     1   --> A_1  L_1       
     e(  6 -  7) =      9.19194  eV     2   --> E    L_3       
     e(  8 -  8) =     10.91384  eV     1   --> A_1  L_1       

 **************************************************************************

 **************************************************************************

                    xk=(   0.10000,   0.10000,   0.10000  )

     Band symmetry, C_3v (3m)   point group:

     e(  1 -  1) =     -5.62720  eV     1   --> A_1  L_1       
     e(  2 -  2) =      5.05921  eV     1   --> A_1  L_1       
     e(  3 -  4) =      6.00707  eV     2   --> E    L_3       
     e(  5 -  5) =      8.77775  eV     1   --> A_1  L_1       
     e(  6 -  7) =      9.05967  eV     2   --> E    L_3       
     e(  8 -  8) =     10.49059  eV     1   --> A_1  L_1       

 **************************************************************************

 **************************************************************************

                    xk=(   0.07500,   0.07500,   0.07500  )

     Band symmetry, C_3v (3m)   point group:

     e(  1 -  1) =     -5.68435  eV     1   --> A_1  L_1       
     e(  2 -  2) =      5.48246  eV     1   --> A_1  L_1       
     e(  3 -  4) =      6.08700  eV     2   --> E    L_3       
     e(  5 -  5) =      8.82283  eV     1   --> A_1  L_1       
     e(  6 -  7) =      8.94174  eV     2   --> E    L_3       
     e(  8 -  8) =     10.10942  eV     1   --> A_1  L_1       

 **************************************************************************

 **************************************************************************

                    xk=(   0.05000,   0.05000,   0.05000  )

     Band symmetry, C_3v (3m)   point group:

     e(  1 -  1) =     -5.72528  eV     1   --> A_1  L_1       
     e(  2 -  2) =      5.84760  eV     1   --> A_1  L_1       
     e(  3 -  4) =      6.15043  eV     2   --> E    L_3       
     e(  5 -  5) =      8.82700  eV     1   --> A_1  L_1       
     e(  6 -  7) =      8.84825  eV     2   --> E    L_3       
     e(  8 -  8) =      9.80706  eV     1   --> A_1  L_1       

 **************************************************************************

 **************************************************************************

                    xk=(   0.02500,   0.02500,   0.02500  )

     Band symmetry, C_3v (3m)   point group:

     e(  1 -  1) =     -5.74989  eV     1   --> A_1  L_1       
     e(  2 -  2) =      6.10843  eV     1   --> A_1  L_1       
     e(  3 -  4) =      6.19154  eV     2   --> E    L_3       
     e(  5 -  6) =      8.78799  eV     2   --> E    L_3       
     e(  7 -  7) =      8.79223  eV     1   --> A_1  L_1       
     e(  8 -  8) =      9.62327  eV     1   --> A_1  L_1       

 **************************************************************************

 **************************************************************************

                    xk=(   0.00000,   0.00000,   0.00000  )

     point group O_h (m-3m) 
     there are 10 classes
     the character table:

       E     8C3   3C2   6C4   6C2'  i     8S6   3s_h  6S4   6s_d 
A_1g   1.00  1.00  1.00  1.00  1.00  1.00  1.00  1.00  1.00  1.00
A_2g   1.00  1.00  1.00 -1.00 -1.00  1.00  1.00  1.00 -1.00 -1.00
E_g    2.00 -1.00  2.00  0.00  0.00  2.00 -1.00  2.00  0.00  0.00
T_1g   3.00  0.00 -1.00  1.00 -1.00  3.00  0.00 -1.00  1.00 -1.00
T_2g   3.00  0.00 -1.00 -1.00  1.00  3.00  0.00 -1.00 -1.00  1.00
A_1u   1.00  1.00  1.00  1.00  1.00 -1.00 -1.00 -1.00 -1.00 -1.00
A_2u   1.00  1.00  1.00 -1.00 -1.00 -1.00 -1.00 -1.00  1.00  1.00
E_u    2.00 -1.00  2.00  0.00  0.00 -2.00  1.00 -2.00  0.00  0.00
T_1u   3.00  0.00 -1.00  1.00 -1.00 -3.00  0.00  1.00 -1.00  1.00
T_2u   3.00  0.00 -1.00 -1.00  1.00 -3.00  0.00  1.00  1.00 -1.00

     the symmetry operations in each class and the name of the first element:

     E        1
                                                                 
     8C3     17   19   20   18   24   21   22   23
                                                                 
     3C2      2    4    3
                                                                 
     6C4      7    8   15   16   12   11
                                                                 
     6C2'     5    6   14   13   10    9
                                                                 
     i       25
                                                                 
     8S6     41   43   44   42   48   45   46   47
                                                                 
     3s_h    26   28   27
                                                                 
     6S4     31   32   39   40   36   35
                                                                 
     6s_d    29   30   38   37   34   33
                                                                 

     Band symmetry, O_h (m-3m)  point group:

     e(  1 -  1) =     -5.75809  eV     1   --> A_1g G_1   G_1+
     e(  2 -  4) =      6.20581  eV     3   --> T_2g G_25' G_5+
     e(  5 -  7) =      8.76714  eV     3   --> T_1u G_15  G_4-
     e(  8 -  8) =      9.56544  eV     1   --> A_2u G_2'  G_2-

 **************************************************************************

 **************************************************************************

                    xk=(   0.00000,   0.05000,   0.00000  )

     point group C_4v (4mm) 
     there are  5 classes
     the character table:

       E     2C4   C2    2s_v  2s_d 
A_1    1.00  1.00  1.00  1.00  1.00
A_2    1.00  1.00  1.00 -1.00 -1.00
B_1    1.00 -1.00  1.00  1.00 -1.00
B_2    1.00 -1.00  1.00 -1.00  1.00
E      2.00  0.00 -2.00  0.00  0.00

     the symmetry operations in each class and the name of the first element:

     E        1
                                                                 
     2C4      3    4
                                                                 
     C2       2
                                                                 
     2s_v     5    6
                                                                 
     2s_d     7    8
                                                                 

     Band symmetry, C_4v (4mm)  point group:

     e(  1 -  1) =     -5.74715  eV     1   --> A_1  G_1 D_1   
     e(  2 -  2) =      6.13127  eV     1   --> B_2  G_4 D_2'  
     e(  3 -  4) =      6.15880  eV     2   --> E    G_5 D_5   
     e(  5 -  5) =      8.74003  eV     1   --> A_1  G_1 D_1   
     e(  6 -  7) =      8.82765  eV     2   --> E    G_5 D_5   
     e(  8 -  8) =      9.63835  eV     1   --> B_2  G_4 D_2'  

 **************************************************************************

 **************************************************************************

                    xk=(   0.00000,   0.10000,   0.00000  )

     Band symmetry, C_4v (4mm)  point group:

     e(  1 -  1) =     -5.71433  eV     1   --> A_1  G_1 D_1   
     e(  2 -  2) =      5.92542  eV     1   --> B_2  G_4 D_2'  
     e(  3 -  4) =      6.02982  eV     2   --> E    G_5 D_5   
     e(  5 -  5) =      8.66190  eV     1   --> A_1  G_1 D_1   
     e(  6 -  7) =      8.99702  eV     2   --> E    G_5 D_5   
     e(  8 -  8) =      9.83604  eV     1   --> B_2  G_4 D_2'  

 **************************************************************************

 **************************************************************************

                    xk=(   0.00000,   0.15000,   0.00000  )

     Band symmetry, C_4v (4mm)  point group:

     e(  1 -  1) =     -5.65968  eV     1   --> A_1  G_1 D_1   
     e(  2 -  2) =      5.62576  eV     1   --> B_2  G_4 D_2'  
     e(  3 -  4) =      5.84489  eV     2   --> E    G_5 D_5   
     e(  5 -  5) =      8.54120  eV     1   --> A_1  G_1 D_1   
     e(  6 -  7) =      9.24904  eV     2   --> E    G_5 D_5   
     e(  8 -  8) =     10.10892  eV     1   --> B_2  G_4 D_2'  

 **************************************************************************

 **************************************************************************

                    xk=(   0.00000,   0.20000,   0.00000  )

     Band symmetry, C_4v (4mm)  point group:

     e(  1 -  1) =     -5.58327  eV     1   --> A_1  G_1 D_1   
     e(  2 -  2) =      5.26643  eV     1   --> B_2  G_4 D_2'  
     e(  3 -  4) =      5.62857  eV     2   --> E    G_5 D_5   
     e(  5 -  5) =      8.38897  eV     1   --> A_1  G_1 D_1   
     e(  6 -  7) =      9.55885  eV     2   --> E    G_5 D_5   
     e(  8 -  8) =     10.39319  eV     1   --> B_2  G_4 D_2'  

 **************************************************************************

 **************************************************************************

                    xk=(   0.00000,   0.25000,   0.00000  )

     Band symmetry, C_4v (4mm)  point group:

     e(  1 -  1) =     -5.48522  eV     1   --> A_1  G_1 D_1   
     e(  2 -  2) =      4.87064  eV     1   --> B_2  G_4 D_2'  
     e(  3 -  4) =      5.39826  eV     2   --> E    G_5 D_5   
     e(  5 -  5) =      8.21641  eV     1   --> A_1  G_1 D_1   
     e(  6 -  7) =      9.90860  eV     2   --> E    G_5 D_5   
     e(  8 -  8) =     10.59988  eV     1   --> B_2  G_4 D_2'  

 **************************************************************************

 **************************************************************************

                    xk=(   0.00000,   0.30000,   0.00000  )

     Band symmetry, C_4v (4mm)  point group:

     e(  1 -  1) =     -5.36566  eV     1   --> A_1  G_1 D_1   
     e(  2 -  2) =      4.45258  eV     1   --> B_2  G_4 D_2'  
     e(  3 -  4) =      5.16517  eV     2   --> E    G_5 D_5   
     e(  5 -  5) =      8.03344  eV     1   --> A_1  G_1 D_1   
     e(  6 -  7) =     10.28663  eV     2   --> E    G_5 D_5   
     e(  8 -  8) =     10.61795  eV     1   --> B_2  G_4 D_2'  

 **************************************************************************

 **************************************************************************

                    xk=(   0.00000,   0.35000,   0.00000  )

     Band symmetry, C_4v (4mm)  point group:

     e(  1 -  1) =     -5.22476  eV     1   --> A_1  G_1 D_1   
     e(  2 -  2) =      4.02075  eV     1   --> B_2  G_4 D_2'  
     e(  3 -  4) =      4.93637  eV     2   --> E    G_5 D_5   
     e(  5 -  5) =      7.84816  eV     1   --> A_1  G_1 D_1   
     e(  6 -  6) =     10.42065  eV     1   --> B_2  G_4 D_2'  
     e(  7 -  8) =     10.68537  eV     2   --> E    G_5 D_5   

 **************************************************************************

 **************************************************************************

                    xk=(   0.00000,   0.40000,   0.00000  )

     Band symmetry, C_4v (4mm)  point group:

     e(  1 -  1) =     -5.06273  eV     1   --> A_1  G_1 D_1   
     e(  2 -  2) =      3.58037  eV     1   --> B_2  G_4 D_2'  
     e(  3 -  4) =      4.71647  eV     2   --> E    G_5 D_5   
     e(  5 -  5) =      7.66697  eV     1   --> A_1  G_1 D_1   
     e(  6 -  6) =     10.09524  eV     1   --> B_2  G_4 D_2'  
     e(  7 -  8) =     11.09975  eV     2   --> E    G_5 D_5   

 **************************************************************************

 **************************************************************************

                    xk=(   0.00000,   0.45000,   0.00000  )

     Band symmetry, C_4v (4mm)  point group:

     e(  1 -  1) =     -4.87983  eV     1   --> A_1  G_1 D_1   
     e(  2 -  2) =      3.13478  eV     1   --> B_2  G_4 D_2'  
     e(  3 -  4) =      4.50851  eV     2   --> E    G_5 D_5   
     e(  5 -  5) =      7.49483  eV     1   --> A_1  G_1 D_1   
     e(  6 -  6) =      9.72142  eV     1   --> B_2  G_4 D_2'  
     e(  7 -  8) =     11.52631  eV     2   --> E    G_5 D_5   

 **************************************************************************

 **************************************************************************

                    xk=(   0.00000,   0.50000,   0.00000  )

     Band symmetry, C_4v (4mm)  point group:

     e(  1 -  1) =     -4.67634  eV     1   --> A_1  G_1 D_1   
     e(  2 -  2) =      2.68629  eV     1   --> B_2  G_4 D_2'  
     e(  3 -  4) =      4.31464  eV     2   --> E    G_5 D_5   
     e(  5 -  5) =      7.33561  eV     1   --> A_1  G_1 D_1   
     e(  6 -  6) =      9.33981  eV     1   --> B_2  G_4 D_2'  
     e(  7 -  8) =     11.96263  eV     2   --> E    G_5 D_5   

 **************************************************************************

 **************************************************************************

                    xk=(   0.00000,   0.55000,   0.00000  )

     Band symmetry, C_4v (4mm)  point group:

     e(  1 -  1) =     -4.45262  eV     1   --> A_1  G_1 D_1   
     e(  2 -  2) =      2.23672  eV     1   --> B_2  G_4 D_2'  
     e(  3 -  4) =      4.13637  eV     2   --> E    G_5 D_5   
     e(  5 -  5) =      7.19233  eV     1   --> A_1  G_1 D_1   
     e(  6 -  6) =      8.96979  eV     1   --> B_2  G_4 D_2'  
     e(  7 -  8) =     12.40699  eV     2   --> E    G_5 D_5   

 **************************************************************************

 **************************************************************************

                    xk=(   0.00000,   0.60000,   0.00000  )

     Band symmetry, C_4v (4mm)  point group:

     e(  1 -  1) =     -4.20904  eV     1   --> A_1  G_1 D_1   
     e(  2 -  2) =      1.78760  eV     1   --> B_2  G_4 D_2'  
     e(  3 -  4) =      3.97481  eV     2   --> E    G_5 D_5   
     e(  5 -  5) =      7.06741  eV     1   --> A_1  G_1 D_1   
     e(  6 -  6) =      8.62122  eV     1   --> B_2  G_4 D_2'  
     e(  7 -  8) =     12.85823  eV     2   --> E    G_5 D_5   

 **************************************************************************

 **************************************************************************

                    xk=(   0.00000,   0.65000,   0.00000  )

     Band symmetry, C_4v (4mm)  point group:

     e(  1 -  1) =     -3.94606  eV     1   --> A_1  G_1 D_1   
     e(  2 -  2) =      1.34039  eV     1   --> B_2  G_4 D_2'  
     e(  3 -  4) =      3.83080  eV     2   --> E    G_5 D_5   
     e(  5 -  5) =      6.96283  eV     1   --> A_1  G_1 D_1   
     e(  6 -  6) =      8.29942  eV     1   --> B_2  G_4 D_2'  
     e(  7 -  8) =     13.31550  eV     2   --> E    G_5 D_5   

 **************************************************************************

 **************************************************************************

                    xk=(   0.00000,   0.70000,   0.00000  )

     Band symmetry, C_4v (4mm)  point group:

     e(  1 -  1) =     -3.66419  eV     1   --> A_1  G_1 D_1   
     e(  2 -  2) =      0.89657  eV     1   --> B_2  G_4 D_2'  
     e(  3 -  4) =      3.70496  eV     2   --> E    G_5 D_5   
     e(  5 -  5) =      6.88022  eV     1   --> A_1  G_1 D_1   
     e(  6 -  6) =      8.00732  eV     1   --> B_2  G_4 D_2'  
     e(  7 -  8) =     13.77818  eV     2   --> E    G_5 D_5   

 **************************************************************************

 **************************************************************************

                    xk=(   0.00000,   0.75000,   0.00000  )

     Band symmetry, C_4v (4mm)  point group:

     e(  1 -  1) =     -3.36400  eV     1   --> A_1  G_1 D_1   
     e(  2 -  2) =      0.45758  eV     1   --> B_2  G_4 D_2'  
     e(  3 -  4) =      3.59780  eV     2   --> E    G_5 D_5   
     e(  5 -  5) =      6.82102  eV     1   --> A_1  G_1 D_1   
     e(  6 -  6) =      7.74642  eV     1   --> B_2  G_4 D_2'  
     e(  7 -  8) =     14.24556  eV     2   --> E    G_5 D_5   

 **************************************************************************

 **************************************************************************

                    xk=(   0.00000,   0.80000,   0.00000  )

     Band symmetry, C_4v (4mm)  point group:

     e(  1 -  1) =     -3.04615  eV     1   --> A_1  G_1 D_1   
     e(  2 -  2) =      0.02489  eV     1   --> B_2  G_4 D_2'  
     e(  3 -  4) =      3.50967  eV     2   --> E    G_5 D_5   
     e(  5 -  5) =      6.78645  eV     1   --> A_1  G_1 D_1   
     e(  6 -  6) =      7.51736  eV     1   --> B_2  G_4 D_2'  
     e(  7 -  8) =     14.71644  eV     2   --> E    G_5 D_5   

 **************************************************************************

 **************************************************************************

                    xk=(   0.00000,   0.85000,   0.00000  )

     Band symmetry, C_4v (4mm)  point group:

     e(  1 -  1) =     -2.71138  eV     1   --> A_1  G_1 D_1   
     e(  2 -  2) =     -0.40002  eV     1   --> B_2  G_4 D_2'  
     e(  3 -  4) =      3.44087  eV     2   --> E    G_5 D_5   
     e(  5 -  5) =      6.77766  eV     1   --> A_1  G_1 D_1   
     e(  6 -  6) =      7.32020  eV     1   --> B_2  G_4 D_2'  
     e(  7 -  8) =     15.18805  eV     2   --> E    G_5 D_5   

 **************************************************************************

 **************************************************************************

                    xk=(   0.00000,   0.90000,   0.00000  )

     Band symmetry, C_4v (4mm)  point group:

     e(  1 -  1) =     -2.36051  eV     1   --> A_1  G_1 D_1   
     e(  2 -  2) =     -0.81575  eV     1   --> B_2  G_4 D_2'  
     e(  3 -  4) =      3.39159  eV     2   --> E    G_5 D_5   
     e(  5 -  5) =      6.79569  eV     1   --> A_1  G_1 D_1   
     e(  6 -  6) =      7.15464  eV     1   --> B_2  G_4 D_2'  
     e(  7 -  8) =     15.65247  eV     2   --> E    G_5 D_5   

 **************************************************************************

 **************************************************************************

                    xk=(   0.00000,   0.95000,   0.00000  )

     Band symmetry, C_4v (4mm)  point group:

     e(  1 -  1) =     -1.99445  eV     1   --> A_1  G_1 D_1   
     e(  2 -  2) =     -1.22091  eV     1   --> B_2  G_4 D_2'  
     e(  3 -  4) =      3.36196  eV     2   --> E    G_5 D_5   
     e(  5 -  5) =      6.84150  eV     1   --> A_1  G_1 D_1   
     e(  6 -  6) =      7.02015  eV     1   --> B_2  G_4 D_2'  
     e(  7 -  8) =     16.07933  eV     2   --> E    G_5 D_5   

 **************************************************************************

 **************************************************************************

                    xk=(   0.00000,   1.00000,   0.00000  )

     zone border point and non-symmorphic group 
     symmetry decomposition not available

 **************************************************************************

 **************************************************************************

                    xk=(   0.00000,   0.98750,   0.03750  )

     point group C_s (m)    
     there are  2 classes
     the character table:

       E     s    
A'     1.00  1.00
A''    1.00 -1.00

     the symmetry operations in each class and the name of the first element:

     E        1
                                                                 
     s        2
                                                                 

     Band symmetry, C_s (m)     point group:

     e(  1 -  1) =     -1.70828  eV     1   --> A'             
     e(  2 -  2) =     -1.51520  eV     1   --> A''            
     e(  3 -  3) =      3.33353  eV     1   --> A'             
     e(  4 -  4) =      3.33439  eV     1   --> A''            
     e(  5 -  5) =      6.92914  eV     1   --> A'             
     e(  6 -  6) =      6.97323  eV     1   --> A''            
     e(  7 -  7) =     16.21687  eV     1   --> A''            
     e(  8 -  8) =     16.25253  eV     1   --> A'             

 **************************************************************************

 **************************************************************************

                    xk=(   0.00000,   0.97500,   0.07500  )

     Band symmetry, C_s (m)     point group:

     e(  1 -  1) =     -1.79637  eV     1   --> A'             
     e(  2 -  2) =     -1.41261  eV     1   --> A''            
     e(  3 -  3) =      3.27887  eV     1   --> A'             
     e(  4 -  4) =      3.28551  eV     1   --> A''            
     e(  5 -  5) =      7.01144  eV     1   --> A'             
     e(  6 -  6) =      7.09691  eV     1   --> A''            
     e(  7 -  7) =     15.90262  eV     1   --> A''            
     e(  8 -  8) =     16.12184  eV     1   --> A'             

 **************************************************************************

 **************************************************************************

                    xk=(   0.00000,   0.96250,   0.11250  )

     Band symmetry, C_s (m)     point group:

     e(  1 -  1) =     -1.87764  eV     1   --> A'             
     e(  2 -  2) =     -1.30811  eV     1   --> A''            
     e(  3 -  3) =      3.19288  eV     1   --> A'             
     e(  4 -  4) =      3.21420  eV     1   --> A''            
     e(  5 -  5) =      7.15730  eV     1   --> A'             
     e(  6 -  6) =      7.27977  eV     1   --> A''            
     e(  7 -  7) =     15.42722  eV     1   --> A''            
     e(  8 -  8) =     15.93518  eV     1   --> A'             

 **************************************************************************

 **************************************************************************

                    xk=(   0.00000,   0.95000,   0.15000  )

     Band symmetry, C_s (m)     point group:

     e(  1 -  1) =     -1.95149  eV     1   --> A'             
     e(  2 -  2) =     -1.20378  eV     1   --> A''            
     e(  3 -  3) =      3.08308  eV     1   --> A'             
     e(  4 -  4) =      3.13073  eV     1   --> A''            
     e(  5 -  5) =      7.35850  eV     1   --> A'             
     e(  6 -  6) =      7.51323  eV     1   --> A''            
     e(  7 -  7) =     14.87819  eV     1   --> A''            
     e(  8 -  8) =     15.68892  eV     1   --> A'             

 **************************************************************************

 **************************************************************************

                    xk=(   0.00000,   0.93750,   0.18750  )

     Band symmetry, C_s (m)     point group:

     e(  1 -  1) =     -2.01745  eV     1   --> A'             
     e(  2 -  2) =     -1.10210  eV     1   --> A''            
     e(  3 -  3) =      2.95755  eV     1   --> A'             
     e(  4 -  4) =      3.04525  eV     1   --> A''            
     e(  5 -  5) =      7.60632  eV     1   --> A'             
     e(  6 -  6) =      7.78911  eV     1   --> A''            
     e(  7 -  7) =     14.29906  eV     1   --> A''            
     e(  8 -  8) =     15.38694  eV     1   --> A'             

 **************************************************************************

 **************************************************************************

                    xk=(   0.00000,   0.92500,   0.22500  )

     Band symmetry, C_s (m)     point group:

     e(  1 -  1) =     -2.07522  eV     1   --> A'             
     e(  2 -  2) =     -1.00591  eV     1   --> A''            
     e(  3 -  3) =      2.82359  eV     1   --> A'             
     e(  4 -  4) =      2.96690  eV     1   --> A''            
     e(  5 -  5) =      7.89285  eV     1   --> A'             
     e(  6 -  6) =      8.10043  eV     1   --> A''            
     e(  7 -  7) =     13.70944  eV     1   --> A''            
     e(  8 -  8) =     15.04705  eV     1   --> A'             

 **************************************************************************

 **************************************************************************

                    xk=(   0.00000,   0.91250,   0.26250  )

     Band symmetry, C_s (m)     point group:

     e(  1 -  1) =     -2.12460  eV     1   --> A'             
     e(  2 -  2) =     -0.91835  eV     1   --> A''            
     e(  3 -  3) =      2.68721  eV     1   --> A'             
     e(  4 -  4) =      2.90356  eV     1   --> A''            
     e(  5 -  5) =      8.21151  eV     1   --> A'             
     e(  6 -  6) =      8.44140  eV     1   --> A''            
     e(  7 -  7) =     13.11953  eV     1   --> A''            
     e(  8 -  8) =     14.68730  eV     1   --> A'             

 **************************************************************************

 **************************************************************************

                    xk=(   0.00000,   0.90000,   0.30000  )

     Band symmetry, C_s (m)     point group:

     e(  1 -  1) =     -2.16549  eV     1   --> A'             
     e(  2 -  2) =     -0.84261  eV     1   --> A''            
     e(  3 -  3) =      2.55315  eV     1   --> A'             
     e(  4 -  4) =      2.86176  eV     1   --> A''            
     e(  5 -  5) =      8.55697  eV     1   --> A'             
     e(  6 -  6) =      8.80704  eV     1   --> A''            
     e(  7 -  7) =     12.53589  eV     1   --> A''            
     e(  8 -  8) =     14.31965  eV     1   --> A'             

 **************************************************************************

 **************************************************************************

                    xk=(  -0.00000,   0.88750,   0.33750  )

     Band symmetry, C_s (m)     point group:

     e(  1 -  1) =     -2.19786  eV     1   --> A'             
     e(  2 -  2) =     -0.78160  eV     1   --> A''            
     e(  3 -  3) =      2.42504  eV     1   --> A'             
     e(  4 -  4) =      2.84655  eV     1   --> A''            
     e(  5 -  5) =      8.92487  eV     1   --> A'             
     e(  6 -  6) =      9.19222  eV     1   --> A''            
     e(  7 -  7) =     11.96435  eV     1   --> A''            
     e(  8 -  8) =     13.95131  eV     1   --> A'             

 **************************************************************************

 **************************************************************************

                    xk=(   0.00000,   0.87500,   0.37500  )

     Band symmetry, C_s (m)     point group:

     e(  1 -  1) =     -2.22176  eV     1   --> A'             
     e(  2 -  2) =     -0.73748  eV     1   --> A''            
     e(  3 -  3) =      2.30570  eV     1   --> A'             
     e(  4 -  4) =      2.86124  eV     1   --> A''            
     e(  5 -  5) =      9.31150  eV     1   --> A'             
     e(  6 -  6) =      9.58849  eV     1   --> A''            
     e(  7 -  7) =     11.41404  eV     1   --> A''            
     e(  8 -  8) =     13.58692  eV     1   --> A'             

 **************************************************************************

 **************************************************************************

                    xk=(   0.00000,   0.86250,   0.41250  )

     Band symmetry, C_s (m)     point group:

     e(  1 -  1) =     -2.23729  eV     1   --> A'             
     e(  2 -  2) =     -0.71133  eV     1   --> A''            
     e(  3 -  3) =      2.19728  eV     1   --> A'             
     e(  4 -  4) =      2.90712  eV     1   --> A''            
     e(  5 -  5) =      9.71334  eV     1   --> A'             
     e(  6 -  6) =      9.96412  eV     1   --> A''            
     e(  7 -  7) =     10.91756  eV     1   --> A''            
     e(  8 -  8) =     13.22998  eV     1   --> A'             

 **************************************************************************

 **************************************************************************

                    xk=(   0.00000,   0.85000,   0.45000  )

     Band symmetry, C_s (m)     point group:

     e(  1 -  1) =     -2.24459  eV     1   --> A'             
     e(  2 -  2) =     -0.70295  eV     1   --> A''            
     e(  3 -  3) =      2.10149  eV     1   --> A'             
     e(  4 -  4) =      2.98322  eV     1   --> A''            
     e(  5 -  5) =     10.06773  eV     1   --> A''            
     e(  6 -  6) =     10.12637  eV     1   --> A'             
     e(  7 -  7) =     10.72774  eV     1   --> A''            
     e(  8 -  8) =     12.88405  eV     1   --> A'             

 **************************************************************************

 **************************************************************************

                    xk=(   0.00000,   0.83750,   0.48750  )

     Band symmetry, C_s (m)     point group:

     e(  1 -  1) =     -2.24383  eV     1   --> A'             
     e(  2 -  2) =     -0.71092  eV     1   --> A''            
     e(  3 -  3) =      2.01967  eV     1   --> A'             
     e(  4 -  4) =      3.08632  eV     1   --> A''            
     e(  5 -  5) =      9.68472  eV     1   --> A''            
     e(  6 -  6) =     10.54431  eV     1   --> A'             
     e(  7 -  7) =     11.06132  eV     1   --> A''            
     e(  8 -  8) =     12.55468  eV     1   --> A'             

 **************************************************************************

 **************************************************************************

                    xk=(   0.00000,   0.82500,   0.52500  )

     Band symmetry, C_s (m)     point group:

     e(  1 -  1) =     -2.23520  eV     1   --> A'             
     e(  2 -  2) =     -0.73301  eV     1   --> A''            
     e(  3 -  3) =      1.95288  eV     1   --> A'             
     e(  4 -  4) =      3.21094  eV     1   --> A''            
     e(  5 -  5) =      9.22534  eV     1   --> A''            
     e(  6 -  6) =     10.95148  eV     1   --> A'             
     e(  7 -  7) =     11.51131  eV     1   --> A''            
     e(  8 -  8) =     12.25658  eV     1   --> A'             

 **************************************************************************

 **************************************************************************

                    xk=(   0.00000,   0.81250,   0.56250  )

     Band symmetry, C_s (m)     point group:

     e(  1 -  1) =     -2.21890  eV     1   --> A'             
     e(  2 -  2) =     -0.76652  eV     1   --> A''            
     e(  3 -  3) =      1.90197  eV     1   --> A'             
     e(  4 -  4) =      3.34934  eV     1   --> A''            
     e(  5 -  5) =      8.78061  eV     1   --> A''            
     e(  6 -  6) =     11.28208  eV     1   --> A'             
     e(  7 -  7) =     11.99148  eV     1   --> A''            
     e(  8 -  8) =     12.05427  eV     1   --> A'             

 **************************************************************************

 **************************************************************************

                    xk=(   0.00000,   0.80000,   0.60000  )

     Band symmetry, C_s (m)     point group:

     e(  1 -  1) =     -2.19512  eV     1   --> A'             
     e(  2 -  2) =     -0.80878  eV     1   --> A''            
     e(  3 -  3) =      1.86758  eV     1   --> A'             
     e(  4 -  4) =      3.49117  eV     1   --> A''            
     e(  5 -  5) =      8.37103  eV     1   --> A''            
     e(  6 -  6) =     11.32020  eV     1   --> A'             
     e(  7 -  7) =     12.16184  eV     1   --> A'             
     e(  8 -  8) =     12.48838  eV     1   --> A''            

 **************************************************************************

 **************************************************************************

                    xk=(   0.00000,   0.78750,   0.63750  )

     Band symmetry, C_s (m)     point group:

     e(  1 -  1) =     -2.16403  eV     1   --> A'             
     e(  2 -  2) =     -0.85736  eV     1   --> A''            
     e(  3 -  3) =      1.85021  eV     1   --> A'             
     e(  4 -  4) =      3.62288  eV     1   --> A''            
     e(  5 -  5) =      8.01164  eV     1   --> A''            
     e(  6 -  6) =     11.11309  eV     1   --> A'             
     e(  7 -  7) =     12.52913  eV     1   --> A'             
     e(  8 -  8) =     12.99691  eV     1   --> A''            

 **************************************************************************

 **************************************************************************

                    xk=(   0.00000,   0.77500,   0.67500  )

     Band symmetry, C_s (m)     point group:

     e(  1 -  1) =     -2.12576  eV     1   --> A'             
     e(  2 -  2) =     -0.91032  eV     1   --> A''            
     e(  3 -  3) =      1.85017  eV     1   --> A'             
     e(  4 -  4) =      3.72738  eV     1   --> A''            
     e(  5 -  5) =      7.71936  eV     1   --> A''            
     e(  6 -  6) =     10.85478  eV     1   --> A'             
     e(  7 -  7) =     12.95584  eV     1   --> A'             
     e(  8 -  8) =     13.51284  eV     1   --> A''            

 **************************************************************************

 **************************************************************************

                    xk=(  -0.00000,   0.76250,   0.71250  )

     Band symmetry, C_s (m)     point group:

     e(  1 -  1) =     -2.08042  eV     1   --> A'             
     e(  2 -  2) =     -0.96620  eV     1   --> A''            
     e(  3 -  3) =      1.86764  eV     1   --> A'             
     e(  4 -  4) =      3.78523  eV     1   --> A''            
     e(  5 -  5) =      7.51321  eV     1   --> A''            
     e(  6 -  6) =     10.59203  eV     1   --> A'             
     e(  7 -  7) =     13.37476  eV     1   --> A'             
     e(  8 -  8) =     14.02752  eV     1   --> A''            

 **************************************************************************

 **************************************************************************

                    xk=(   0.00000,   0.75000,   0.75000  )

     point group C_2v (mm2) 
     there are  4 classes
     the character table:

       E     C2    s_v   s_v' 
A_1    1.00  1.00  1.00  1.00
A_2    1.00  1.00 -1.00 -1.00
B_1    1.00 -1.00  1.00 -1.00
B_2    1.00 -1.00 -1.00  1.00

     the symmetry operations in each class and the name of the first element:

     E        1
                                                                 
     C2       2
                                                                 
     s_v      4
                                                                 
     s_v'     3
                                                                 

     Band symmetry, C_2v (mm2)  point group:

     e(  1 -  1) =     -2.02806  eV     1   --> A_1  D_1  S_1  
     e(  2 -  2) =     -1.02415  eV     1   --> B_1  D_3  S_3  
     e(  3 -  3) =      1.90266  eV     1   --> A_1  D_1  S_1  
     e(  4 -  4) =      3.77930  eV     1   --> A_2  D_2  S_2  
     e(  5 -  5) =      7.41009  eV     1   --> B_1  D_3  S_3  
     e(  6 -  6) =     10.33587  eV     1   --> A_1  D_1  S_1  
     e(  7 -  7) =     13.67311  eV     1   --> B_2  D_4  S_4  
     e(  8 -  8) =     14.22059  eV     1   --> A_1  D_1  S_1  

 **************************************************************************

 **************************************************************************

                    xk=(   0.00000,   0.71250,   0.71250  )

     Band symmetry, C_2v (mm2)  point group:

     e(  1 -  1) =     -2.21584  eV     1   --> A_1  D_1  S_1  
     e(  2 -  2) =     -0.83463  eV     1   --> B_1  D_3  S_3  
     e(  3 -  3) =      1.80835  eV     1   --> A_1  D_1  S_1  
     e(  4 -  4) =      3.91141  eV     1   --> A_2  D_2  S_2  
     e(  5 -  5) =      7.56319  eV     1   --> B_1  D_3  S_3  
     e(  6 -  6) =     11.09922  eV     1   --> A_1  D_1  S_1  
     e(  7 -  7) =     13.21653  eV     1   --> B_2  D_4  S_4  
     e(  8 -  8) =     13.75979  eV     1   --> A_1  D_1  S_1  

 **************************************************************************

 **************************************************************************

                    xk=(   0.00000,   0.67500,   0.67500  )

     Band symmetry, C_2v (mm2)  point group:

     e(  1 -  1) =     -2.44034  eV     1   --> A_1  D_1  S_1  
     e(  2 -  2) =     -0.61914  eV     1   --> B_1  D_3  S_3  
     e(  3 -  3) =      1.78704  eV     1   --> A_1  D_1  S_1  
     e(  4 -  4) =      4.05825  eV     1   --> A_2  D_2  S_2  
     e(  5 -  5) =      7.73328  eV     1   --> B_1  D_3  S_3  
     e(  6 -  6) =     11.85413  eV     1   --> A_1  D_1  S_1  
     e(  7 -  7) =     12.77669  eV     1   --> B_2  D_4  S_4  
     e(  8 -  8) =     13.35539  eV     1   --> A_1  D_1  S_1  

 **************************************************************************

 **************************************************************************

                    xk=(   0.00000,   0.63750,   0.63750  )

     Band symmetry, C_2v (mm2)  point group:

     e(  1 -  1) =     -2.69338  eV     1   --> A_1  D_1  S_1  
     e(  2 -  2) =     -0.37788  eV     1   --> B_1  D_3  S_3  
     e(  3 -  3) =      1.83338  eV     1   --> A_1  D_1  S_1  
     e(  4 -  4) =      4.21812  eV     1   --> A_2  D_2  S_2  
     e(  5 -  5) =      7.91800  eV     1   --> B_1  D_3  S_3  
     e(  6 -  6) =     12.35572  eV     1   --> B_2  D_4  S_4  
     e(  7 -  7) =     12.39216  eV     1   --> A_1  D_1  S_1  
     e(  8 -  8) =     13.20968  eV     1   --> A_1  D_1  S_1  

 **************************************************************************

 **************************************************************************

                    xk=(   0.00000,   0.60000,   0.60000  )

     Band symmetry, C_2v (mm2)  point group:

     e(  1 -  1) =     -2.96516  eV     1   --> A_1  D_1  S_1  
     e(  2 -  2) =     -0.11111  eV     1   --> B_1  D_3  S_3  
     e(  3 -  3) =      1.93933  eV     1   --> A_1  D_1  S_1  
     e(  4 -  4) =      4.38889  eV     1   --> A_2  D_2  S_2  
     e(  5 -  5) =      8.11414  eV     1   --> B_1  D_3  S_3  
     e(  6 -  6) =     11.95513  eV     1   --> B_2  D_4  S_4  
     e(  7 -  7) =     12.25801  eV     1   --> A_1  D_1  S_1  
     e(  8 -  8) =     13.05692  eV     1   --> B_1  D_3  S_3  

 **************************************************************************

 **************************************************************************

                    xk=(   0.00000,   0.56250,   0.56250  )

     Band symmetry, C_2v (mm2)  point group:

     e(  1 -  1) =     -3.24628  eV     1   --> A_1  D_1  S_1  
     e(  2 -  2) =      0.18090  eV     1   --> B_1  D_3  S_3  
     e(  3 -  3) =      2.09644  eV     1   --> A_1  D_1  S_1  
     e(  4 -  4) =      4.56806  eV     1   --> A_2  D_2  S_2  
     e(  5 -  5) =      8.31738  eV     1   --> B_1  D_3  S_3  
     e(  6 -  6) =     11.57601  eV     1   --> B_2  D_4  S_4  
     e(  7 -  7) =     11.91898  eV     1   --> A_1  D_1  S_1  
     e(  8 -  8) =     12.76505  eV     1   --> B_1  D_3  S_3  

 **************************************************************************

 **************************************************************************

                    xk=(   0.00000,   0.52500,   0.52500  )

     Band symmetry, C_2v (mm2)  point group:

     e(  1 -  1) =     -3.52879  eV     1   --> A_1  D_1  S_1  
     e(  2 -  2) =      0.49781  eV     1   --> B_1  D_3  S_3  
     e(  3 -  3) =      2.29709  eV     1   --> A_1  D_1  S_1  
     e(  4 -  4) =      4.75263  eV     1   --> A_2  D_2  S_2  
     e(  5 -  5) =      8.52186  eV     1   --> B_1  D_3  S_3  
     e(  6 -  6) =     11.21918  eV     1   --> B_2  D_4  S_4  
     e(  7 -  7) =     11.56830  eV     1   --> A_1  D_1  S_1  
     e(  8 -  8) =     12.50485  eV     1   --> B_1  D_3  S_3  

 **************************************************************************

 **************************************************************************

                    xk=(   0.00000,   0.48750,   0.48750  )

     Band symmetry, C_2v (mm2)  point group:

     e(  1 -  1) =     -3.80633  eV     1   --> A_1  D_1  S_1  
     e(  2 -  2) =      0.83918  eV     1   --> B_1  D_3  S_3  
     e(  3 -  3) =      2.53481  eV     1   --> A_1  D_1  S_1  
     e(  4 -  4) =      4.93913  eV     1   --> A_2  D_2  S_2  
     e(  5 -  5) =      8.71977  eV     1   --> B_1  D_3  S_3  
     e(  6 -  6) =     10.88530  eV     1   --> B_2  D_4  S_4  
     e(  7 -  7) =     11.23070  eV     1   --> A_1  D_1  S_1  
     e(  8 -  8) =     12.28254  eV     1   --> B_1  D_3  S_3  

 **************************************************************************

 **************************************************************************

                    xk=(   0.00000,   0.45000,   0.45000  )

     Band symmetry, C_2v (mm2)  point group:

     e(  1 -  1) =     -4.07405  eV     1   --> A_1  D_1  S_1  
     e(  2 -  2) =      1.20451  eV     1   --> B_1  D_3  S_3  
     e(  3 -  3) =      2.80407  eV     1   --> A_1  D_1  S_1  
     e(  4 -  4) =      5.12369  eV     1   --> A_2  D_2  S_2  
     e(  5 -  5) =      8.90117  eV     1   --> B_1  D_3  S_3  
     e(  6 -  6) =     10.57485  eV     1   --> B_2  D_4  S_4  
     e(  7 -  7) =     10.91196  eV     1   --> A_1  D_1  S_1  
     e(  8 -  8) =     12.10496  eV     1   --> B_1  D_3  S_3  

 **************************************************************************

 **************************************************************************

                    xk=(   0.00000,   0.41250,   0.41250  )

     Band symmetry, C_2v (mm2)  point group:

     e(  1 -  1) =     -4.32826  eV     1   --> A_1  D_1  S_1  
     e(  2 -  2) =      1.59317  eV     1   --> B_1  D_3  S_3  
     e(  3 -  3) =      3.10003  eV     1   --> A_1  D_1  S_1  
     e(  4 -  4) =      5.30214  eV     1   --> A_2  D_2  S_2  
     e(  5 -  5) =      9.05461  eV     1   --> B_1  D_3  S_3  
     e(  6 -  6) =     10.28822  eV     1   --> B_2  D_4  S_4  
     e(  7 -  7) =     10.61397  eV     1   --> A_1  D_1  S_1  
     e(  8 -  8) =     11.97826  eV     1   --> B_1  D_3  S_3  

 **************************************************************************

 **************************************************************************

                    xk=(   0.00000,   0.37500,   0.37500  )

     Band symmetry, C_2v (mm2)  point group:

     e(  1 -  1) =     -4.56616  eV     1   --> A_1  D_1  S_1  
     e(  2 -  2) =      2.00432  eV     1   --> B_1  D_3  S_3  
     e(  3 -  3) =      3.41818  eV     1   --> A_1  D_1  S_1  
     e(  4 -  4) =      5.47028  eV     1   --> A_2  D_2  S_2  
     e(  5 -  5) =      9.16938  eV     1   --> B_1  D_3  S_3  
     e(  6 -  6) =     10.02575  eV     1   --> B_2  D_4  S_4  
     e(  7 -  7) =     10.33728  eV     1   --> A_1  D_1  S_1  
     e(  8 -  8) =     11.90419  eV     1   --> B_1  D_3  S_3  

 **************************************************************************

 **************************************************************************

                    xk=(   0.00000,   0.33750,   0.33750  )

     Band symmetry, C_2v (mm2)  point group:

     e(  1 -  1) =     -4.78566  eV     1   --> A_1  D_1  S_1  
     e(  2 -  2) =      2.43689  eV     1   --> B_1  D_3  S_3  
     e(  3 -  3) =      3.75393  eV     1   --> A_1  D_1  S_1  
     e(  4 -  4) =      5.62424  eV     1   --> A_2  D_2  S_2  
     e(  5 -  5) =      9.23917  eV     1   --> B_1  D_3  S_3  
     e(  6 -  6) =      9.78768  eV     1   --> B_2  D_4  S_4  
     e(  7 -  7) =     10.08188  eV     1   --> A_1  D_1  S_1  
     e(  8 -  8) =     11.87347  eV     1   --> B_1  D_3  S_3  

 **************************************************************************

 **************************************************************************

                    xk=(   0.00000,   0.30000,   0.30000  )

     Band symmetry, C_2v (mm2)  point group:

     e(  1 -  1) =     -4.98514  eV     1   --> A_1  D_1  S_1  
     e(  2 -  2) =      2.88938  eV     1   --> B_1  D_3  S_3  
     e(  3 -  3) =      4.10230  eV     1   --> A_1  D_1  S_1  
     e(  4 -  4) =      5.76086  eV     1   --> A_2  D_2  S_2  
     e(  5 -  5) =      9.26510  eV     1   --> B_1  D_3  S_3  
     e(  6 -  6) =      9.57421  eV     1   --> B_2  D_4  S_4  
     e(  7 -  7) =      9.84738  eV     1   --> A_1  D_1  S_1  
     e(  8 -  8) =     11.85700  eV     1   --> B_1  D_3  S_3  

 **************************************************************************

 **************************************************************************

                    xk=(   0.00000,   0.26250,   0.26250  )

     Band symmetry, C_2v (mm2)  point group:

     e(  1 -  1) =     -5.16335  eV     1   --> A_1  D_1  S_1  
     e(  2 -  2) =      3.35969  eV     1   --> B_1  D_3  S_3  
     e(  3 -  3) =      4.45749  eV     1   --> A_1  D_1  S_1  
     e(  4 -  4) =      5.87809  eV     1   --> A_2  D_2  S_2  
     e(  5 -  5) =      9.25505  eV     1   --> B_1  D_3  S_3  
     e(  6 -  6) =      9.38552  eV     1   --> B_2  D_4  S_4  
     e(  7 -  7) =      9.63318  eV     1   --> A_1  D_1  S_1  
     e(  8 -  8) =     11.79752  eV     1   --> B_1  D_3  S_3  

 **************************************************************************

 **************************************************************************

                    xk=(   0.00000,   0.22500,   0.22500  )

     Band symmetry, C_2v (mm2)  point group:

     e(  1 -  1) =     -5.31935  eV     1   --> A_1  D_1  S_1  
     e(  2 -  2) =      3.84461  eV     1   --> B_1  D_3  S_3  
     e(  3 -  3) =      4.81236  eV     1   --> A_1  D_1  S_1  
     e(  4 -  4) =      5.97518  eV     1   --> A_2  D_2  S_2  
     e(  5 -  5) =      9.21980  eV     1   --> B_1  D_3  S_3  
     e(  6 -  6) =      9.22176  eV     1   --> B_2  D_4  S_4  
     e(  7 -  7) =      9.43856  eV     1   --> A_1  D_1  S_1  
     e(  8 -  8) =     11.61676  eV     1   --> B_1  D_3  S_3  

 **************************************************************************

 **************************************************************************

                    xk=(   0.00000,   0.18750,   0.18750  )

     Band symmetry, C_2v (mm2)  point group:

     e(  1 -  1) =     -5.45240  eV     1   --> A_1  D_1  S_1  
     e(  2 -  2) =      4.33906  eV     1   --> B_1  D_3  S_3  
     e(  3 -  3) =      5.15780  eV     1   --> A_1  D_1  S_1  
     e(  4 -  4) =      6.05262  eV     1   --> A_2  D_2  S_2  
     e(  5 -  5) =      9.08302  eV     1   --> B_2  D_4  S_4  
     e(  6 -  6) =      9.16882  eV     1   --> B_1  D_3  S_3  
     e(  7 -  7) =      9.26301  eV     1   --> A_1  D_1  S_1  
     e(  8 -  8) =     11.27371  eV     1   --> B_1  D_3  S_3  

 **************************************************************************

 **************************************************************************

                    xk=(   0.00000,   0.15000,   0.15000  )

     Band symmetry, C_2v (mm2)  point group:

     e(  1 -  1) =     -5.56194  eV     1   --> A_1  D_1  S_1  
     e(  2 -  2) =      4.83440  eV     1   --> B_1  D_3  S_3  
     e(  3 -  3) =      5.48196  eV     1   --> A_1  D_1  S_1  
     e(  4 -  4) =      6.11187  eV     1   --> A_2  D_2  S_2  
     e(  5 -  5) =      8.96939  eV     1   --> B_2  D_4  S_4  
     e(  6 -  6) =      9.10683  eV     1   --> A_1  D_1  S_1  
     e(  7 -  7) =      9.10754  eV     1   --> B_1  D_3  S_3  
     e(  8 -  8) =     10.81706  eV     1   --> B_1  D_3  S_3  

 **************************************************************************

 **************************************************************************

                    xk=(   0.00000,   0.11250,   0.11250  )

     Band symmetry, C_2v (mm2)  point group:

     e(  1 -  1) =     -5.64754  eV     1   --> A_1  D_1  S_1  
     e(  2 -  2) =      5.31480  eV     1   --> B_1  D_3  S_3  
     e(  3 -  3) =      5.76932  eV     1   --> A_1  D_1  S_1  
     e(  4 -  4) =      6.15491  eV     1   --> A_2  D_2  S_2  
     e(  5 -  5) =      8.88094  eV     1   --> B_2  D_4  S_4  
     e(  6 -  6) =      8.97215  eV     1   --> A_1  D_1  S_1  
     e(  7 -  7) =      9.03475  eV     1   --> B_1  D_3  S_3  
     e(  8 -  8) =     10.33609  eV     1   --> B_1  D_3  S_3  

 **************************************************************************

 **************************************************************************

                    xk=(   0.00000,   0.07500,   0.07500  )

     Band symmetry, C_2v (mm2)  point group:

     e(  1 -  1) =     -5.70889  eV     1   --> A_1  D_1  S_1  
     e(  2 -  2) =      5.74933  eV     1   --> B_1  D_3  S_3  
     e(  3 -  3) =      6.00026  eV     1   --> A_1  D_1  S_1  
     e(  4 -  4) =      6.18384  eV     1   --> A_2  D_2  S_2  
     e(  5 -  5) =      8.81773  eV     1   --> B_2  D_4  S_4  
     e(  6 -  6) =      8.86435  eV     1   --> A_1  D_1  S_1  
     e(  7 -  7) =      8.94095  eV     1   --> B_1  D_3  S_3  
     e(  8 -  8) =      9.91974  eV     1   --> B_1  D_3  S_3  

 **************************************************************************

 **************************************************************************

                    xk=(   0.00000,   0.03750,   0.03750  )

     Band symmetry, C_2v (mm2)  point group:

     e(  1 -  1) =     -5.74578  eV     1   --> A_1  D_1  S_1  
     e(  2 -  2) =      6.07752  eV     1   --> B_1  D_3  S_3  
     e(  3 -  3) =      6.15236  eV     1   --> A_1  D_1  S_1  
     e(  4 -  4) =      6.20042  eV     1   --> A_2  D_2  S_2  
     e(  5 -  5) =      8.77979  eV     1   --> B_2  D_4  S_4  
     e(  6 -  6) =      8.79262  eV     1   --> A_1  D_1  S_1  
     e(  7 -  7) =      8.82779  eV     1   --> B_1  D_3  S_3  
     e(  8 -  8) =      9.65182  eV     1   --> B_1  D_3  S_3  

 **************************************************************************

 **************************************************************************

                    xk=(   0.00000,   0.00000,   0.00000  )

     point group O_h (m-3m) 
     there are 10 classes
     the character table:

       E     8C3   3C2   6C4   6C2'  i     8S6   3s_h  6S4   6s_d 
A_1g   1.00  1.00  1.00  1.00  1.00  1.00  1.00  1.00  1.00  1.00
A_2g   1.00  1.00  1.00 -1.00 -1.00  1.00  1.00  1.00 -1.00 -1.00
E_g    2.00 -1.00  2.00  0.00  0.00  2.00 -1.00  2.00  0.00  0.00
T_1g   3.00  0.00 -1.00  1.00 -1.00  3.00  0.00 -1.00  1.00 -1.00
T_2g   3.00  0.00 -1.00 -1.00  1.00  3.00  0.00 -1.00 -1.00  1.00
A_1u   1.00  1.00  1.00  1.00  1.00 -1.00 -1.00 -1.00 -1.00 -1.00
A_2u   1.00  1.00  1.00 -1.00 -1.00 -1.00 -1.00 -1.00  1.00  1.00
E_u    2.00 -1.00  2.00  0.00  0.00 -2.00  1.00 -2.00  0.00  0.00
T_1u   3.00  0.00 -1.00  1.00 -1.00 -3.00  0.00  1.00 -1.00  1.00
T_2u   3.00  0.00 -1.00 -1.00  1.00 -3.00  0.00  1.00  1.00 -1.00

     the symmetry operations in each class and the name of the first element:

     E        1
                                                                 
     8C3     17   19   20   18   24   21   22   23
                                                                 
     3C2      2    4    3
                                                                 
     6C4      7    8   15   16   12   11
                                                                 
     6C2'     5    6   14   13   10    9
                                                                 
     i       25
                                                                 
     8S6     41   43   44   42   48   45   46   47
                                                                 
     3s_h    26   28   27
                                                                 
     6S4     31   32   39   40   36   35
                                                                 
     6s_d    29   30   38   37   34   33
                                                                 

     Band symmetry, O_h (m-3m)  point group:

     e(  1 -  1) =     -5.75809  eV     1   --> A_1g G_1   G_1+
     e(  2 -  4) =      6.20581  eV     3   --> T_2g G_25' G_5+
     e(  5 -  7) =      8.76714  eV     3   --> T_1u G_15  G_4-
     e(  8 -  8) =      9.56544  eV     1   --> A_2u G_2'  G_2-

 **************************************************************************

     BANDS        :     31.03s CPU     26.78s WALL


   This run was terminated on:   6:13: 6  19Dec2024            

=------------------------------------------------------------------------------=
   JOB DONE.
=------------------------------------------------------------------------------=
