
     Program BANDS v.7.0 starts on 19Dec2024 at  6:24:42 

     This program is part of the open-source Quantum ESPRESSO suite
     for quantum simulation of materials; please cite
         "P. Giannozzi et al., J. Phys.:Condens. Matter 21 395502 (2009);
         "P. Giannozzi et al., J. Phys.:Condens. Matter 29 465901 (2017);
         "P. Giannozzi et al., J. Chem. Phys. 152 154105 (2020);
          URL http://www.quantum-espresso.org", 
     in publications or presentations arising from this work. More details at
     http://www.quantum-espresso.org/quote

     Parallel version (MPI & OpenMP), running on       2 processor cores
     Number of MPI processes:                 1
     Threads/MPI process:                     2

     MPI processes distributed on     1 nodes
     243 MiB available memory on the printing compute node when the environment starts


     Reading xml data from directory:

     ./outputs/si.save/
     Message from routine volume:
     axis vectors are left-handed
     file Si.rel-pbe-n-kjpaw_psl.1.0.0.UPF: wavefunction(s)  3S 3P 3P renormalized

     IMPORTANT: XC functional enforced from input :
     Exchange-correlation= PBE
                           (   1   4   3   4   0   0   0)
     Any further DFT definition will be discarded
     Please, verify this is what you really want


     G-vector sticks info
     --------------------
     sticks:   dense  smooth     PW     G-vecs:    dense   smooth      PW
     Sum         733     733    211                12939    12939    2085

     Using Slab Decomposition

     Reading collected, re-writing distributed wavefunctions
     high-symmetry point:  0.5000 0.5000 0.5000   x coordinate   0.0000
     high-symmetry point:  0.0000 0.0000 0.0000   x coordinate   0.8660
     high-symmetry point:  0.0000 1.0000 0.0000   x coordinate   1.8660
     high-symmetry point:  0.0000 0.7500 0.7500   x coordinate   2.6566
     high-symmetry point:  0.0000 0.0000 0.0000   x coordinate   3.7173

     Plottable bands (eV) written to file Si_bands_w_soc.dat.gnu
     Bands written to file Si_bands_w_soc.dat

 **************************************************************************

                    xk=(   0.50000,   0.50000,   0.50000  )

     zone border point and non-symmorphic group 
     symmetry decomposition not available

 **************************************************************************

 **************************************************************************

                    xk=(   0.47500,   0.47500,   0.47500  )

     double point group C_3v (3m)  
     there are  6 classes and  3 irreducible representations
     the character table:

       E     -E    2C3   -2C3  3s_v  -3s_v
                                          
G_4    2.00 -2.00  1.00 -1.00  0.00  0.00
G_5    1.00 -1.00 -1.00  1.00  0.00  0.00
G_6    1.00 -1.00 -1.00  1.00  0.00  0.00

     imaginary part

       E     -E    2C3   -2C3  3s_v  -3s_v
                                          
G_4    0.00  0.00  0.00  0.00  0.00  0.00
G_5    0.00  0.00  0.00  0.00  1.00 -1.00
G_6    0.00  0.00  0.00  0.00 -1.00  1.00

     the symmetry operations in each class and the name of the first element:

     E             1
                                                                 
     -E           -1
                                                                 
     2C3           2    3
                                                                 
     -2C3         -2   -3
                                                                 
     3s_v          4    5   -6
                                                                 
     -3s_v         6   -4   -5
                                                                 

     Band symmetry, C_3v (3m)   double point group:

     e(  1 -  2) =     -3.46192  eV     2   --> G_4   L_6      
     e(  3 -  4) =     -0.71502  eV     2   --> G_4   L_6      
     e(  5 -  6) =      4.99542  eV     2   --> G_4   L_6      
     e(  7 -  8) =      5.02721  eV     2   --> G_5   L_4      
     e(  7 -  8) =      5.02721  eV     2   --> G_6   L_5      
     e(  9 - 10) =      7.74669  eV     2   --> G_4   L_6      
     e( 11 - 12) =      9.54335  eV     2   --> G_4   L_6      
     e( 13 - 14) =      9.55783  eV     2   --> G_5   L_4      
     e( 13 - 14) =      9.55783  eV     2   --> G_6   L_5      
     e( 15 - 16) =     13.94805  eV     2   --> G_4   L_6      

 **************************************************************************

 **************************************************************************

                    xk=(   0.45000,   0.45000,   0.45000  )

     Band symmetry, C_3v (3m)   double point group:

     e(  1 -  2) =     -3.56065  eV     2   --> G_4   L_6      
     e(  3 -  4) =     -0.56993  eV     2   --> G_4   L_6      
     e(  5 -  6) =      5.00889  eV     2   --> G_4   L_6      
     e(  7 -  8) =      5.04066  eV     2   --> G_5   L_4      
     e(  7 -  8) =      5.04066  eV     2   --> G_6   L_5      
     e(  9 - 10) =      7.76216  eV     2   --> G_4   L_6      
     e( 11 - 12) =      9.55852  eV     2   --> G_4   L_6      
     e( 13 - 14) =      9.57321  eV     2   --> G_5   L_4      
     e( 13 - 14) =      9.57321  eV     2   --> G_6   L_5      
     e( 15 - 16) =     13.97142  eV     2   --> G_4   L_6      

 **************************************************************************

 **************************************************************************

                    xk=(   0.42500,   0.42500,   0.42500  )

     Band symmetry, C_3v (3m)   double point group:

     e(  1 -  2) =     -3.70533  eV     2   --> G_4   L_6      
     e(  3 -  4) =     -0.34812  eV     2   --> G_4   L_6      
     e(  5 -  6) =      5.03133  eV     2   --> G_4   L_6      
     e(  7 -  8) =      5.06306  eV     2   --> G_5   L_4      
     e(  7 -  8) =      5.06306  eV     2   --> G_6   L_5      
     e(  9 - 10) =      7.78787  eV     2   --> G_4   L_6      
     e( 11 - 12) =      9.58255  eV     2   --> G_4   L_6      
     e( 13 - 14) =      9.59759  eV     2   --> G_5   L_4      
     e( 13 - 14) =      9.59759  eV     2   --> G_6   L_5      
     e( 15 - 16) =     14.00787  eV     2   --> G_4   L_6      

 **************************************************************************

 **************************************************************************

                    xk=(   0.40000,   0.40000,   0.40000  )

     Band symmetry, C_3v (3m)   double point group:

     e(  1 -  2) =     -3.87791  eV     2   --> G_4   L_6      
     e(  3 -  4) =     -0.06782  eV     2   --> G_4   L_6      
     e(  5 -  6) =      5.06269  eV     2   --> G_4   L_6      
     e(  7 -  8) =      5.09438  eV     2   --> G_5   L_4      
     e(  7 -  8) =      5.09438  eV     2   --> G_6   L_5      
     e(  9 - 10) =      7.82371  eV     2   --> G_4   L_6      
     e( 11 - 12) =      9.61346  eV     2   --> G_4   L_6      
     e( 13 - 14) =      9.62900  eV     2   --> G_5   L_4      
     e( 13 - 14) =      9.62900  eV     2   --> G_6   L_5      
     e( 15 - 16) =     14.05232  eV     2   --> G_4   L_6      

 **************************************************************************

 **************************************************************************

                    xk=(   0.37500,   0.37500,   0.37500  )

     Band symmetry, C_3v (3m)   double point group:

     e(  1 -  2) =     -4.06433  eV     2   --> G_4   L_6      
     e(  3 -  4) =      0.25665  eV     2   --> G_4   L_6      
     e(  5 -  6) =      5.10293  eV     2   --> G_4   L_6      
     e(  7 -  8) =      5.13456  eV     2   --> G_5   L_4      
     e(  7 -  8) =      5.13456  eV     2   --> G_6   L_5      
     e(  9 - 10) =      7.86949  eV     2   --> G_4   L_6      
     e( 11 - 12) =      9.64828  eV     2   --> G_4   L_6      
     e( 13 - 14) =      9.66448  eV     2   --> G_5   L_4      
     e( 13 - 14) =      9.66448  eV     2   --> G_6   L_5      
     e( 15 - 16) =     14.09380  eV     2   --> G_4   L_6      

 **************************************************************************

 **************************************************************************

                    xk=(   0.35000,   0.35000,   0.35000  )

     Band symmetry, C_3v (3m)   double point group:

     e(  1 -  2) =     -4.25489  eV     2   --> G_4   L_6      
     e(  3 -  4) =      0.61519  eV     2   --> G_4   L_6      
     e(  5 -  6) =      5.15192  eV     2   --> G_4   L_6      
     e(  7 -  8) =      5.18349  eV     2   --> G_5   L_4      
     e(  7 -  8) =      5.18349  eV     2   --> G_6   L_5      
     e(  9 - 10) =      7.92493  eV     2   --> G_4   L_6      
     e( 11 - 12) =      9.68293  eV     2   --> G_4   L_6      
     e( 13 - 14) =      9.69995  eV     2   --> G_5   L_4      
     e( 13 - 14) =      9.69995  eV     2   --> G_6   L_5      
     e( 15 - 16) =     14.10765  eV     2   --> G_4   L_6      

 **************************************************************************

 **************************************************************************

                    xk=(   0.32500,   0.32500,   0.32500  )

     Band symmetry, C_3v (3m)   double point group:

     e(  1 -  2) =     -4.44315  eV     2   --> G_4   L_6      
     e(  3 -  4) =      1.00086  eV     2   --> G_4   L_6      
     e(  5 -  6) =      5.20949  eV     2   --> G_4   L_6      
     e(  7 -  8) =      5.24100  eV     2   --> G_5   L_4      
     e(  7 -  8) =      5.24100  eV     2   --> G_6   L_5      
     e(  9 - 10) =      7.98965  eV     2   --> G_4   L_6      
     e( 11 - 12) =      9.71207  eV     2   --> G_4   L_6      
     e( 13 - 14) =      9.73008  eV     2   --> G_5   L_4      
     e( 13 - 14) =      9.73008  eV     2   --> G_6   L_5      
     e( 15 - 16) =     14.04279  eV     2   --> G_4   L_6      

 **************************************************************************

 **************************************************************************

                    xk=(   0.30000,   0.30000,   0.30000  )

     Band symmetry, C_3v (3m)   double point group:

     e(  1 -  2) =     -4.62484  eV     2   --> G_4   L_6      
     e(  3 -  4) =      1.40877  eV     2   --> G_4   L_6      
     e(  5 -  6) =      5.27538  eV     2   --> G_4   L_6      
     e(  7 -  8) =      5.30682  eV     2   --> G_5   L_4      
     e(  7 -  8) =      5.30682  eV     2   --> G_6   L_5      
     e(  9 - 10) =      8.06310  eV     2   --> G_4   L_6      
     e( 11 - 12) =      9.72926  eV     2   --> G_4   L_6      
     e( 13 - 14) =      9.74839  eV     2   --> G_5   L_4      
     e( 13 - 14) =      9.74839  eV     2   --> G_6   L_5      
     e( 15 - 16) =     13.80275  eV     2   --> G_4   L_6      

 **************************************************************************

 **************************************************************************

                    xk=(   0.27500,   0.27500,   0.27500  )

     Band symmetry, C_3v (3m)   double point group:

     e(  1 -  2) =     -4.79709  eV     2   --> G_4   L_6      
     e(  3 -  4) =      1.83520  eV     2   --> G_4   L_6      
     e(  5 -  6) =      5.34917  eV     2   --> G_4   L_6      
     e(  7 -  8) =      5.38056  eV     2   --> G_5   L_4      
     e(  7 -  8) =      5.38056  eV     2   --> G_6   L_5      
     e(  9 - 10) =      8.14453  eV     2   --> G_4   L_6      
     e( 11 - 12) =      9.72742  eV     2   --> G_4   L_6      
     e( 13 - 14) =      9.74774  eV     2   --> G_5   L_4      
     e( 13 - 14) =      9.74774  eV     2   --> G_6   L_5      
     e( 15 - 16) =     13.51747  eV     2   --> G_4   L_6      

 **************************************************************************

 **************************************************************************

                    xk=(   0.25000,   0.25000,   0.25000  )

     Band symmetry, C_3v (3m)   double point group:

     e(  1 -  2) =     -4.95793  eV     2   --> G_4   L_6      
     e(  3 -  4) =      2.27709  eV     2   --> G_4   L_6      
     e(  5 -  6) =      5.43028  eV     2   --> G_4   L_6      
     e(  7 -  8) =      5.46162  eV     2   --> G_5   L_4      
     e(  7 -  8) =      5.46162  eV     2   --> G_6   L_5      
     e(  9 - 10) =      8.23291  eV     2   --> G_4   L_6      
     e( 11 - 12) =      9.70013  eV     2   --> G_4   L_6      
     e( 13 - 14) =      9.72160  eV     2   --> G_5   L_4      
     e( 13 - 14) =      9.72160  eV     2   --> G_6   L_5      
     e( 15 - 16) =     13.12407  eV     2   --> G_4   L_6      

 **************************************************************************

 **************************************************************************

                    xk=(   0.22500,   0.22500,   0.22500  )

     Band symmetry, C_3v (3m)   double point group:

     e(  1 -  2) =     -5.10595  eV     2   --> G_4   L_6      
     e(  3 -  4) =      2.73160  eV     2   --> G_4   L_6      
     e(  5 -  6) =      5.51787  eV     2   --> G_4   L_6      
     e(  7 -  8) =      5.54918  eV     2   --> G_5   L_4      
     e(  7 -  8) =      5.54918  eV     2   --> G_6   L_5      
     e(  9 - 10) =      8.32681  eV     2   --> G_4   L_6      
     e( 11 - 12) =      9.64329  eV     2   --> G_4   L_6      
     e( 13 - 14) =      9.66576  eV     2   --> G_5   L_4      
     e( 13 - 14) =      9.66576  eV     2   --> G_6   L_5      
     e( 15 - 16) =     12.69817  eV     2   --> G_4   L_6      

 **************************************************************************

 **************************************************************************

                    xk=(   0.20000,   0.20000,   0.20000  )

     Band symmetry, C_3v (3m)   double point group:

     e(  1 -  2) =     -5.24016  eV     2   --> G_4   L_6      
     e(  3 -  4) =      3.19578  eV     2   --> G_4   L_6      
     e(  5 -  6) =      5.61075  eV     2   --> G_4   L_6      
     e(  7 -  8) =      5.64205  eV     2   --> G_5   L_4      
     e(  7 -  8) =      5.64205  eV     2   --> G_6   L_5      
     e(  9 - 10) =      8.42430  eV     2   --> G_4   L_6      
     e( 11 - 12) =      9.55682  eV     2   --> G_4   L_6      
     e( 13 - 14) =      9.58003  eV     2   --> G_5   L_4      
     e( 13 - 14) =      9.58003  eV     2   --> G_6   L_5      
     e( 15 - 16) =     12.25646  eV     2   --> G_4   L_6      

 **************************************************************************

 **************************************************************************

                    xk=(   0.17500,   0.17500,   0.17500  )

     Band symmetry, C_3v (3m)   double point group:

     e(  1 -  2) =     -5.35981  eV     2   --> G_4   L_6      
     e(  3 -  4) =      3.66620  eV     2   --> G_4   L_6      
     e(  5 -  6) =      5.70728  eV     2   --> G_4   L_6      
     e(  7 -  8) =      5.73858  eV     2   --> G_5   L_4      
     e(  7 -  8) =      5.73858  eV     2   --> G_6   L_5      
     e(  9 - 10) =      8.52271  eV     2   --> G_4   L_6      
     e( 11 - 12) =      9.44516  eV     2   --> G_4   L_6      
     e( 13 - 14) =      9.46882  eV     2   --> G_5   L_4      
     e( 13 - 14) =      9.46882  eV     2   --> G_6   L_5      
     e( 15 - 16) =     11.80743  eV     2   --> G_4   L_6      

 **************************************************************************

 **************************************************************************

                    xk=(   0.15000,   0.15000,   0.15000  )

     Band symmetry, C_3v (3m)   double point group:

     e(  1 -  2) =     -5.46435  eV     2   --> G_4   L_6      
     e(  3 -  4) =      4.13841  eV     2   --> G_4   L_6      
     e(  5 -  6) =      5.80519  eV     2   --> G_4   L_6      
     e(  7 -  8) =      5.83652  eV     2   --> G_5   L_4      
     e(  7 -  8) =      5.83652  eV     2   --> G_6   L_5      
     e(  9 - 10) =      8.61834  eV     2   --> G_4   L_6      
     e( 11 - 12) =      9.31638  eV     2   --> G_4   L_6      
     e( 13 - 14) =      9.34019  eV     2   --> G_5   L_4      
     e( 13 - 14) =      9.34019  eV     2   --> G_6   L_5      
     e( 15 - 16) =     11.35749  eV     2   --> G_4   L_6      

 **************************************************************************

 **************************************************************************

                    xk=(   0.12500,   0.12500,   0.12500  )

     Band symmetry, C_3v (3m)   double point group:

     e(  1 -  2) =     -5.55339  eV     2   --> G_4   L_6      
     e(  3 -  4) =      4.60612  eV     2   --> G_4   L_6      
     e(  5 -  6) =      5.90146  eV     2   --> G_4   L_6      
     e(  7 -  8) =      5.93282  eV     2   --> G_5   L_4      
     e(  7 -  8) =      5.93282  eV     2   --> G_6   L_5      
     e(  9 - 10) =      8.70592  eV     2   --> G_4   L_6      
     e( 11 - 12) =      9.18057  eV     2   --> G_4   L_6      
     e( 13 - 14) =      9.20429  eV     2   --> G_5   L_4      
     e( 13 - 14) =      9.20429  eV     2   --> G_6   L_5      
     e( 15 - 16) =     10.91455  eV     2   --> G_4   L_6      

 **************************************************************************

 **************************************************************************

                    xk=(   0.10000,   0.10000,   0.10000  )

     Band symmetry, C_3v (3m)   double point group:

     e(  1 -  2) =     -5.62659  eV     2   --> G_4   L_6      
     e(  3 -  4) =      5.05954  eV     2   --> G_4   L_6      
     e(  5 -  6) =      5.99213  eV     2   --> G_4   L_6      
     e(  7 -  8) =      6.02349  eV     2   --> G_5   L_4      
     e(  7 -  8) =      6.02349  eV     2   --> G_6   L_5      
     e(  9 - 10) =      8.77771  eV     2   --> G_4   L_6      
     e( 11 - 12) =      9.04862  eV     2   --> G_4   L_6      
     e( 13 - 14) =      9.07197  eV     2   --> G_5   L_4      
     e( 13 - 14) =      9.07197  eV     2   --> G_6   L_5      
     e( 15 - 16) =     10.49133  eV     2   --> G_4   L_6      

 **************************************************************************

 **************************************************************************

                    xk=(   0.07500,   0.07500,   0.07500  )

     Band symmetry, C_3v (3m)   double point group:

     e(  1 -  2) =     -5.68374  eV     2   --> G_4   L_6      
     e(  3 -  4) =      5.48252  eV     2   --> G_4   L_6      
     e(  5 -  6) =      6.07226  eV     2   --> G_4   L_6      
     e(  7 -  8) =      6.10348  eV     2   --> G_5   L_4      
     e(  7 -  8) =      6.10348  eV     2   --> G_6   L_5      
     e(  9 - 10) =      8.82174  eV     2   --> G_4   L_6      
     e( 11 - 12) =      8.93181  eV     2   --> G_4   L_6      
     e( 13 - 14) =      8.95395  eV     2   --> G_5   L_4      
     e( 13 - 14) =      8.95395  eV     2   --> G_6   L_5      
     e( 15 - 16) =     10.11019  eV     2   --> G_4   L_6      

 **************************************************************************

 **************************************************************************

                    xk=(   0.05000,   0.05000,   0.05000  )

     Band symmetry, C_3v (3m)   double point group:

     e(  1 -  2) =     -5.72468  eV     2   --> G_4   L_6      
     e(  3 -  4) =      5.84682  eV     2   --> G_4   L_6      
     e(  5 -  6) =      6.13649  eV     2   --> G_4   L_6      
     e(  7 -  8) =      6.16699  eV     2   --> G_5   L_4      
     e(  7 -  8) =      6.16699  eV     2   --> G_6   L_5      
     e(  9 - 10) =      8.81695  eV     2   --> G_4   L_6      
     e( 11 - 12) =      8.84734  eV     2   --> G_4   L_6      
     e( 13 - 14) =      8.86037  eV     2   --> G_5   L_4      
     e( 13 - 14) =      8.86037  eV     2   --> G_6   L_5      
     e( 15 - 16) =      9.80785  eV     2   --> G_4   L_6      

 **************************************************************************

 **************************************************************************

                    xk=(   0.02500,   0.02500,   0.02500  )

     Band symmetry, C_3v (3m)   double point group:

     e(  1 -  2) =     -5.74928  eV     2   --> G_4   L_6      
     e(  3 -  4) =      6.10256  eV     2   --> G_4   L_6      
     e(  5 -  6) =      6.18267  eV     2   --> G_4   L_6      
     e(  7 -  8) =      6.20815  eV     2   --> G_5   L_4      
     e(  7 -  8) =      6.20815  eV     2   --> G_6   L_5      
     e(  9 - 10) =      8.76688  eV     2   --> G_4   L_6      
     e( 11 - 12) =      8.80003  eV     2   --> G_5   L_4      
     e( 11 - 12) =      8.80003  eV     2   --> G_6   L_5      
     e( 13 - 14) =      8.80241  eV     2   --> G_4   L_6      
     e( 15 - 16) =      9.62407  eV     2   --> G_4   L_6      

 **************************************************************************

 **************************************************************************

                    xk=(   0.00000,   0.00000,   0.00000  )

     double point group O_h (m-3m) 
     there are 16 classes and  6 irreducible representations
     the character table:

       E     -E    8C3   -8C3   3C2  6C4   -6C4   6C2' i     -i    8S6   -8S6 
                               -3C2              -6C2'                        
G_6+   2.00 -2.00  1.00 -1.00  0.00  1.41 -1.41  0.00  2.00 -2.00  1.00 -1.00
G_7+   2.00 -2.00  1.00 -1.00  0.00 -1.41  1.41  0.00  2.00 -2.00  1.00 -1.00
G_8+   4.00 -4.00 -1.00  1.00  0.00  0.00  0.00  0.00  4.00 -4.00 -1.00  1.00
G_6-   2.00 -2.00  1.00 -1.00  0.00  1.41 -1.41  0.00 -2.00  2.00 -1.00  1.00
G_7-   2.00 -2.00  1.00 -1.00  0.00 -1.41  1.41  0.00 -2.00  2.00 -1.00  1.00
G_8-   4.00 -4.00 -1.00  1.00  0.00  0.00  0.00  0.00 -4.00  4.00  1.00 -1.00

        3s_h 6S4   -6S4   6s_d
       -3s_h             -6s_d
G_6+   0.00  1.41 -1.41  0.00
G_7+   0.00 -1.41  1.41  0.00
G_8+   0.00  0.00  0.00  0.00
G_6-   0.00 -1.41  1.41  0.00
G_7-   0.00  1.41 -1.41  0.00
G_8-   0.00  0.00  0.00  0.00

     the symmetry operations in each class and the name of the first element:

     E             1
                                                                 
     -E           -1
                                                                 
     8C3          17   19   20   18   24   21   22   23
                                                                 
     -8C3        -17  -19  -20  -18  -24  -21  -22  -23
                                                                 
      3C2 -3C2     2   -2    4   -4    3   -3
                                                                 
     6C4           7    8   15   16   12   11
                                                                 
     -6C4         -7   -8  -15  -16  -12  -11
                                                                 
      6C2'-6C2'    5   -5   -6    6   14  -13  -14   13   10   -9  -10    9
                                                                 
     i            25
                                                                 
     -i          -25
                                                                 
     8S6          41   43   44   42   48   45   46   47
                                                                 
     -8S6        -41  -43  -44  -42  -48  -45  -46  -47
                                                                 
      3s_h-3s_h   26  -26   28  -28   27  -27
                                                                 
     6S4          31   32   39   40   36   35
                                                                 
     -6S4        -31  -32  -39  -40  -36  -35
                                                                 
      6s_d-6s_d   29  -29  -30   30   38  -37  -38   37   34  -33  -34   33
                                                                 

     Band symmetry, O_h (m-3m)  double point group:

     e(  1 -  2) =     -5.75749  eV     2   --> G_6+           
     e(  3 -  4) =      6.17445  eV     2   --> G_7+           
     e(  5 -  8) =      6.22244  eV     4   --> G_8+           
     e(  9 - 10) =      8.74421  eV     2   --> G_6-           
     e( 11 - 14) =      8.77916  eV     4   --> G_8-           
     e( 15 - 16) =      9.56624  eV     2   --> G_7-           

 **************************************************************************

 **************************************************************************

                    xk=(   0.00000,   0.05000,   0.00000  )

     double point group C_4v (4mm) 
     there are  7 classes and  2 irreducible representations
     the character table:

       E     -E    2C4   -2C4   C2    2s_v  2s_d
                               -C2   -2s_v -2s_d
G_6    2.00 -2.00  1.41 -1.41  0.00  0.00  0.00
G_7    2.00 -2.00 -1.41  1.41  0.00  0.00  0.00

     the symmetry operations in each class and the name of the first element:

     E             1
                                                                 
     -E           -1
                                                                 
     2C4           3    4
                                                                 
     -2C4         -3   -4
                                                                 
      C2  -C2      2   -2
                                                                 
      2s_v-2s_v    5   -5    6   -6
                                                                 
      2s_d-2s_d    7   -7   -8    8
                                                                 

     Band symmetry, C_4v (4mm)  double point group:

     e(  1 -  2) =     -5.74654  eV     2   --> G_6   D_6      
     e(  3 -  4) =      6.11512  eV     2   --> G_7   D_7      
     e(  5 -  6) =      6.16083  eV     2   --> G_7   D_7      
     e(  7 -  8) =      6.17477  eV     2   --> G_6   D_6      
     e(  9 - 10) =      8.73713  eV     2   --> G_6   D_6      
     e( 11 - 12) =      8.82030  eV     2   --> G_6   D_6      
     e( 13 - 14) =      8.83902  eV     2   --> G_7   D_7      
     e( 15 - 16) =      9.63916  eV     2   --> G_7   D_7      

 **************************************************************************

 **************************************************************************

                    xk=(   0.00000,   0.10000,   0.00000  )

     Band symmetry, C_4v (4mm)  double point group:

     e(  1 -  2) =     -5.71372  eV     2   --> G_6   D_6      
     e(  3 -  4) =      5.92159  eV     2   --> G_7   D_7      
     e(  5 -  6) =      6.02107  eV     2   --> G_7   D_7      
     e(  7 -  8) =      6.04422  eV     2   --> G_6   D_6      
     e(  9 - 10) =      8.66154  eV     2   --> G_6   D_6      
     e( 11 - 12) =      8.98874  eV     2   --> G_6   D_6      
     e( 13 - 14) =      9.00681  eV     2   --> G_7   D_7      
     e( 15 - 16) =      9.83684  eV     2   --> G_7   D_7      

 **************************************************************************

 **************************************************************************

                    xk=(   0.00000,   0.15000,   0.00000  )

     Band symmetry, C_4v (4mm)  double point group:

     e(  1 -  2) =     -5.65907  eV     2   --> G_6   D_6      
     e(  3 -  4) =      5.62469  eV     2   --> G_7   D_7      
     e(  5 -  6) =      5.83519  eV     2   --> G_7   D_7      
     e(  7 -  8) =      5.85746  eV     2   --> G_6   D_6      
     e(  9 - 10) =      8.54126  eV     2   --> G_6   D_6      
     e( 11 - 12) =      9.24224  eV     2   --> G_6   D_6      
     e( 13 - 14) =      9.25694  eV     2   --> G_7   D_7      
     e( 15 - 16) =     10.10973  eV     2   --> G_7   D_7      

 **************************************************************************

 **************************************************************************

                    xk=(   0.00000,   0.20000,   0.00000  )

     Band symmetry, C_4v (4mm)  double point group:

     e(  1 -  2) =     -5.58266  eV     2   --> G_6   D_6      
     e(  3 -  4) =      5.26624  eV     2   --> G_7   D_7      
     e(  5 -  6) =      5.61969  eV     2   --> G_7   D_7      
     e(  7 -  8) =      5.63943  eV     2   --> G_6   D_6      
     e(  9 - 10) =      8.38916  eV     2   --> G_6   D_6      
     e( 11 - 12) =      9.55369  eV     2   --> G_6   D_6      
     e( 13 - 14) =      9.56493  eV     2   --> G_7   D_7      
     e( 15 - 16) =     10.39399  eV     2   --> G_7   D_7      

 **************************************************************************

 **************************************************************************

                    xk=(   0.00000,   0.25000,   0.00000  )

     Band symmetry, C_4v (4mm)  double point group:

     e(  1 -  2) =     -5.48461  eV     2   --> G_6   D_6      
     e(  3 -  4) =      4.87083  eV     2   --> G_7   D_7      
     e(  5 -  6) =      5.39046  eV     2   --> G_7   D_7      
     e(  7 -  8) =      5.40766  eV     2   --> G_6   D_6      
     e(  9 - 10) =      8.21665  eV     2   --> G_6   D_6      
     e( 11 - 12) =      9.90496  eV     2   --> G_6   D_6      
     e( 13 - 14) =      9.91306  eV     2   --> G_7   D_7      
     e( 15 - 16) =     10.60063  eV     2   --> G_7   D_7      

 **************************************************************************

 **************************************************************************

                    xk=(   0.00000,   0.30000,   0.00000  )

     Band symmetry, C_4v (4mm)  double point group:

     e(  1 -  2) =     -5.36504  eV     2   --> G_6   D_6      
     e(  3 -  4) =      4.45297  eV     2   --> G_7   D_7      
     e(  5 -  6) =      5.15841  eV     2   --> G_7   D_7      
     e(  7 -  8) =      5.17334  eV     2   --> G_6   D_6      
     e(  9 - 10) =      8.03370  eV     2   --> G_6   D_6      
     e( 11 - 12) =     10.28431  eV     2   --> G_6   D_6      
     e( 13 - 14) =     10.28960  eV     2   --> G_7   D_7      
     e( 15 - 16) =     10.61861  eV     2   --> G_7   D_7      

 **************************************************************************

 **************************************************************************

                    xk=(   0.00000,   0.35000,   0.00000  )

     Band symmetry, C_4v (4mm)  double point group:

     e(  1 -  2) =     -5.22414  eV     2   --> G_6   D_6      
     e(  3 -  4) =      4.02125  eV     2   --> G_7   D_7      
     e(  5 -  6) =      4.93054  eV     2   --> G_7   D_7      
     e(  7 -  8) =      4.94352  eV     2   --> G_6   D_6      
     e(  9 - 10) =      7.84843  eV     2   --> G_6   D_6      
     e( 11 - 12) =     10.42075  eV     2   --> G_7   D_7      
     e( 13 - 14) =     10.68421  eV     2   --> G_6   D_6      
     e( 15 - 16) =     10.68749  eV     2   --> G_7   D_7      

 **************************************************************************

 **************************************************************************

                    xk=(   0.00000,   0.40000,   0.00000  )

     Band symmetry, C_4v (4mm)  double point group:

     e(  1 -  2) =     -5.06211  eV     2   --> G_6   D_6      
     e(  3 -  4) =      3.58094  eV     2   --> G_7   D_7      
     e(  5 -  6) =      4.71145  eV     2   --> G_7   D_7      
     e(  7 -  8) =      4.72274  eV     2   --> G_6   D_6      
     e(  9 - 10) =      7.66723  eV     2   --> G_6   D_6      
     e( 11 - 12) =     10.09538  eV     2   --> G_7   D_7      
     e( 13 - 14) =     11.09961  eV     2   --> G_6   D_6      
     e( 15 - 16) =     11.10066  eV     2   --> G_7   D_7      

 **************************************************************************

 **************************************************************************

                    xk=(   0.00000,   0.45000,   0.00000  )

     Band symmetry, C_4v (4mm)  double point group:

     e(  1 -  2) =     -4.87920  eV     2   --> G_6   D_6      
     e(  3 -  4) =      3.13539  eV     2   --> G_7   D_7      
     e(  5 -  6) =      4.50421  eV     2   --> G_7   D_7      
     e(  7 -  8) =      4.51403  eV     2   --> G_6   D_6      
     e(  9 - 10) =      7.49509  eV     2   --> G_6   D_6      
     e( 11 - 12) =      9.72153  eV     2   --> G_7   D_7      
     e( 13 - 14) =     11.52625  eV     2   --> G_7   D_7      
     e( 15 - 16) =     11.52706  eV     2   --> G_6   D_6      

 **************************************************************************

 **************************************************************************

                    xk=(   0.00000,   0.50000,   0.00000  )

     Band symmetry, C_4v (4mm)  double point group:

     e(  1 -  2) =     -4.67571  eV     2   --> G_6   D_6      
     e(  3 -  4) =      2.68694  eV     2   --> G_7   D_7      
     e(  5 -  6) =      4.31097  eV     2   --> G_7   D_7      
     e(  7 -  8) =      4.31951  eV     2   --> G_6   D_6      
     e(  9 - 10) =      7.33586  eV     2   --> G_6   D_6      
     e( 11 - 12) =      9.33990  eV     2   --> G_7   D_7      
     e( 13 - 14) =     11.96171  eV     2   --> G_7   D_7      
     e( 15 - 16) =     11.96416  eV     2   --> G_6   D_6      

 **************************************************************************

 **************************************************************************

                    xk=(   0.00000,   0.55000,   0.00000  )

     Band symmetry, C_4v (4mm)  double point group:

     e(  1 -  2) =     -4.45198  eV     2   --> G_6   D_6      
     e(  3 -  4) =      2.23739  eV     2   --> G_7   D_7      
     e(  5 -  6) =      4.13327  eV     2   --> G_7   D_7      
     e(  7 -  8) =      4.14066  eV     2   --> G_6   D_6      
     e(  9 - 10) =      7.19257  eV     2   --> G_6   D_6      
     e( 11 - 12) =      8.96986  eV     2   --> G_7   D_7      
     e( 13 - 14) =     12.40532  eV     2   --> G_7   D_7      
     e( 15 - 16) =     12.40923  eV     2   --> G_6   D_6      

 **************************************************************************

 **************************************************************************

                    xk=(   0.00000,   0.60000,   0.00000  )

     Band symmetry, C_4v (4mm)  double point group:

     e(  1 -  2) =     -4.20840  eV     2   --> G_6   D_6      
     e(  3 -  4) =      1.78829  eV     2   --> G_7   D_7      
     e(  5 -  6) =      3.97222  eV     2   --> G_7   D_7      
     e(  7 -  8) =      3.97857  eV     2   --> G_6   D_6      
     e(  9 - 10) =      7.06764  eV     2   --> G_6   D_6      
     e( 11 - 12) =      8.62130  eV     2   --> G_7   D_7      
     e( 13 - 14) =     12.85589  eV     2   --> G_7   D_7      
     e( 15 - 16) =     12.86108  eV     2   --> G_6   D_6      

 **************************************************************************

 **************************************************************************

                    xk=(   0.00000,   0.65000,   0.00000  )

     Band symmetry, C_4v (4mm)  double point group:

     e(  1 -  2) =     -3.94541  eV     2   --> G_6   D_6      
     e(  3 -  4) =      1.34109  eV     2   --> G_7   D_7      
     e(  5 -  6) =      3.82869  eV     2   --> G_7   D_7      
     e(  7 -  8) =      3.83408  eV     2   --> G_6   D_6      
     e(  9 - 10) =      6.96305  eV     2   --> G_6   D_6      
     e( 11 - 12) =      8.29950  eV     2   --> G_7   D_7      
     e( 13 - 14) =     13.31259  eV     2   --> G_7   D_7      
     e( 15 - 16) =     13.31888  eV     2   --> G_6   D_6      

 **************************************************************************

 **************************************************************************

                    xk=(   0.00000,   0.70000,   0.00000  )

     Band symmetry, C_4v (4mm)  double point group:

     e(  1 -  2) =     -3.66353  eV     2   --> G_6   D_6      
     e(  3 -  4) =      0.89727  eV     2   --> G_7   D_7      
     e(  5 -  6) =      3.70329  eV     2   --> G_7   D_7      
     e(  7 -  8) =      3.70780  eV     2   --> G_6   D_6      
     e(  9 - 10) =      6.88043  eV     2   --> G_6   D_6      
     e( 11 - 12) =      8.00741  eV     2   --> G_7   D_7      
     e( 13 - 14) =     13.77478  eV     2   --> G_7   D_7      
     e( 15 - 16) =     13.78201  eV     2   --> G_6   D_6      

 **************************************************************************

 **************************************************************************

                    xk=(   0.00000,   0.75000,   0.00000  )

     Band symmetry, C_4v (4mm)  double point group:

     e(  1 -  2) =     -3.36334  eV     2   --> G_6   D_6      
     e(  3 -  4) =      0.45828  eV     2   --> G_7   D_7      
     e(  5 -  6) =      3.59654  eV     2   --> G_7   D_7      
     e(  7 -  8) =      3.60022  eV     2   --> G_6   D_6      
     e(  9 - 10) =      6.82121  eV     2   --> G_6   D_6      
     e( 11 - 12) =      7.74652  eV     2   --> G_7   D_7      
     e( 13 - 14) =     14.24177  eV     2   --> G_7   D_7      
     e( 15 - 16) =     14.24976  eV     2   --> G_6   D_6      

 **************************************************************************

 **************************************************************************

                    xk=(   0.00000,   0.80000,   0.00000  )

     Band symmetry, C_4v (4mm)  double point group:

     e(  1 -  2) =     -3.04549  eV     2   --> G_6   D_6      
     e(  3 -  4) =      0.02560  eV     2   --> G_7   D_7      
     e(  5 -  6) =      3.50881  eV     2   --> G_7   D_7      
     e(  7 -  8) =      3.51170  eV     2   --> G_6   D_6      
     e(  9 - 10) =      6.78664  eV     2   --> G_6   D_6      
     e( 11 - 12) =      7.51746  eV     2   --> G_7   D_7      
     e( 13 - 14) =     14.71234  eV     2   --> G_7   D_7      
     e( 15 - 16) =     14.72091  eV     2   --> G_6   D_6      

 **************************************************************************

 **************************************************************************

                    xk=(   0.00000,   0.85000,   0.00000  )

     Band symmetry, C_4v (4mm)  double point group:

     e(  1 -  2) =     -2.71071  eV     2   --> G_6   D_6      
     e(  3 -  4) =     -0.39932  eV     2   --> G_7   D_7      
     e(  5 -  6) =      3.44038  eV     2   --> G_7   D_7      
     e(  7 -  8) =      3.44253  eV     2   --> G_6   D_6      
     e(  9 - 10) =      6.77784  eV     2   --> G_6   D_6      
     e( 11 - 12) =      7.32031  eV     2   --> G_7   D_7      
     e( 13 - 14) =     15.18379  eV     2   --> G_7   D_7      
     e( 15 - 16) =     15.19269  eV     2   --> G_6   D_6      

 **************************************************************************

 **************************************************************************

                    xk=(   0.00000,   0.90000,   0.00000  )

     Band symmetry, C_4v (4mm)  double point group:

     e(  1 -  2) =     -2.35983  eV     2   --> G_6   D_6      
     e(  3 -  4) =     -0.81505  eV     2   --> G_7   D_7      
     e(  5 -  6) =      3.39146  eV     2   --> G_7   D_7      
     e(  7 -  8) =      3.39287  eV     2   --> G_6   D_6      
     e(  9 - 10) =      6.79585  eV     2   --> G_6   D_6      
     e( 11 - 12) =      7.15476  eV     2   --> G_7   D_7      
     e( 13 - 14) =     15.64828  eV     2   --> G_7   D_7      
     e( 15 - 16) =     15.65708  eV     2   --> G_6   D_6      

 **************************************************************************

 **************************************************************************

                    xk=(   0.00000,   0.95000,   0.00000  )

     Band symmetry, C_4v (4mm)  double point group:

     e(  1 -  2) =     -1.99376  eV     2   --> G_6   D_6      
     e(  3 -  4) =     -1.22021  eV     2   --> G_7   D_7      
     e(  5 -  6) =      3.36219  eV     2   --> G_7   D_7      
     e(  7 -  8) =      3.36289  eV     2   --> G_6   D_6      
     e(  9 - 10) =      6.84166  eV     2   --> G_6   D_6      
     e( 11 - 12) =      7.02028  eV     2   --> G_7   D_7      
     e( 13 - 14) =     16.07591  eV     2   --> G_7   D_7      
     e( 15 - 16) =     16.08329  eV     2   --> G_6   D_6      

 **************************************************************************

 **************************************************************************

                    xk=(   0.00000,   1.00000,   0.00000  )

     zone border point and non-symmorphic group 
     symmetry decomposition not available

 **************************************************************************

 **************************************************************************

                    xk=(   0.00000,   0.98750,   0.03750  )

     double point group C_s (m)    
     there are  4 classes and  2 irreducible representations
     the character table:

       E     -E    s     -s   
                              
G_3    1.00 -1.00  0.00  0.00
G_4    1.00 -1.00  0.00  0.00

     imaginary part

       E     -E    s     -s   
                              
G_3    0.00  0.00  1.00 -1.00
G_4    0.00  0.00 -1.00  1.00

     the symmetry operations in each class and the name of the first element:

     E             1
                                                                 
     -E           -1
                                                                 
     s             2
                                                                 
     -s           -2
                                                                 

     Band symmetry, C_s (m)     double point group:

     e(  1 -  2) =     -1.70760  eV     2   --> G_3            
     e(  1 -  2) =     -1.70760  eV     2   --> G_4            
     e(  3 -  4) =     -1.51451  eV     2   --> G_3            
     e(  3 -  4) =     -1.51451  eV     2   --> G_4            
     e(  5 -  6) =      3.33340  eV     2   --> G_3            
     e(  5 -  6) =      3.33340  eV     2   --> G_4            
     e(  7 -  8) =      3.33567  eV     2   --> G_3            
     e(  7 -  8) =      3.33567  eV     2   --> G_4            
     e(  9 - 10) =      6.92927  eV     2   --> G_3            
     e(  9 - 10) =      6.92927  eV     2   --> G_4            
     e( 11 - 12) =      6.97339  eV     2   --> G_3            
     e( 11 - 12) =      6.97339  eV     2   --> G_4            
     e( 13 - 14) =     16.21705  eV     2   --> G_3            
     e( 13 - 14) =     16.21705  eV     2   --> G_4            
     e( 15 - 16) =     16.25304  eV     2   --> G_3            
     e( 15 - 16) =     16.25304  eV     2   --> G_4            

 **************************************************************************

 **************************************************************************

                    xk=(   0.00000,   0.97500,   0.07500  )

     Band symmetry, C_s (m)     double point group:

     e(  1 -  2) =     -1.79568  eV     2   --> G_3            
     e(  1 -  2) =     -1.79568  eV     2   --> G_4            
     e(  3 -  4) =     -1.41191  eV     2   --> G_3            
     e(  3 -  4) =     -1.41191  eV     2   --> G_4            
     e(  5 -  6) =      3.27887  eV     2   --> G_3            
     e(  5 -  6) =      3.27887  eV     2   --> G_4            
     e(  7 -  8) =      3.28666  eV     2   --> G_3            
     e(  7 -  8) =      3.28666  eV     2   --> G_4            
     e(  9 - 10) =      7.01157  eV     2   --> G_3            
     e(  9 - 10) =      7.01157  eV     2   --> G_4            
     e( 11 - 12) =      7.09708  eV     2   --> G_3            
     e( 11 - 12) =      7.09708  eV     2   --> G_4            
     e( 13 - 14) =     15.90278  eV     2   --> G_3            
     e( 13 - 14) =     15.90278  eV     2   --> G_4            
     e( 15 - 16) =     16.12228  eV     2   --> G_3            
     e( 15 - 16) =     16.12228  eV     2   --> G_4            

 **************************************************************************

 **************************************************************************

                    xk=(   0.00000,   0.96250,   0.11250  )

     Band symmetry, C_s (m)     double point group:

     e(  1 -  2) =     -1.87695  eV     2   --> G_3            
     e(  1 -  2) =     -1.87695  eV     2   --> G_4            
     e(  3 -  4) =     -1.30742  eV     2   --> G_3            
     e(  3 -  4) =     -1.30742  eV     2   --> G_4            
     e(  5 -  6) =      3.19305  eV     2   --> G_3            
     e(  5 -  6) =      3.19305  eV     2   --> G_4            
     e(  7 -  8) =      3.21514  eV     2   --> G_3            
     e(  7 -  8) =      3.21514  eV     2   --> G_4            
     e(  9 - 10) =      7.15744  eV     2   --> G_3            
     e(  9 - 10) =      7.15744  eV     2   --> G_4            
     e( 11 - 12) =      7.27995  eV     2   --> G_3            
     e( 11 - 12) =      7.27995  eV     2   --> G_4            
     e( 13 - 14) =     15.42735  eV     2   --> G_3            
     e( 13 - 14) =     15.42735  eV     2   --> G_4            
     e( 15 - 16) =     15.93558  eV     2   --> G_3            
     e( 15 - 16) =     15.93558  eV     2   --> G_4            

 **************************************************************************

 **************************************************************************

                    xk=(   0.00000,   0.95000,   0.15000  )

     Band symmetry, C_s (m)     double point group:

     e(  1 -  2) =     -1.95080  eV     2   --> G_3            
     e(  1 -  2) =     -1.95080  eV     2   --> G_4            
     e(  3 -  4) =     -1.20308  eV     2   --> G_3            
     e(  3 -  4) =     -1.20308  eV     2   --> G_4            
     e(  5 -  6) =      3.08335  eV     2   --> G_3            
     e(  5 -  6) =      3.08335  eV     2   --> G_4            
     e(  7 -  8) =      3.13156  eV     2   --> G_3            
     e(  7 -  8) =      3.13156  eV     2   --> G_4            
     e(  9 - 10) =      7.35864  eV     2   --> G_3            
     e(  9 - 10) =      7.35864  eV     2   --> G_4            
     e( 11 - 12) =      7.51342  eV     2   --> G_3            
     e( 11 - 12) =      7.51342  eV     2   --> G_4            
     e( 13 - 14) =     14.87831  eV     2   --> G_3            
     e( 13 - 14) =     14.87831  eV     2   --> G_4            
     e( 15 - 16) =     15.68925  eV     2   --> G_3            
     e( 15 - 16) =     15.68925  eV     2   --> G_4            

 **************************************************************************

 **************************************************************************

                    xk=(   0.00000,   0.93750,   0.18750  )

     Band symmetry, C_s (m)     double point group:

     e(  1 -  2) =     -2.01676  eV     2   --> G_3            
     e(  1 -  2) =     -2.01676  eV     2   --> G_4            
     e(  3 -  4) =     -1.10139  eV     2   --> G_3            
     e(  3 -  4) =     -1.10139  eV     2   --> G_4            
     e(  5 -  6) =      2.95787  eV     2   --> G_3            
     e(  5 -  6) =      2.95787  eV     2   --> G_4            
     e(  7 -  8) =      3.04600  eV     2   --> G_3            
     e(  7 -  8) =      3.04600  eV     2   --> G_4            
     e(  9 - 10) =      7.60646  eV     2   --> G_3            
     e(  9 - 10) =      7.60646  eV     2   --> G_4            
     e( 11 - 12) =      7.78931  eV     2   --> G_3            
     e( 11 - 12) =      7.78931  eV     2   --> G_4            
     e( 13 - 14) =     14.29918  eV     2   --> G_3            
     e( 13 - 14) =     14.29918  eV     2   --> G_4            
     e( 15 - 16) =     15.38721  eV     2   --> G_3            
     e( 15 - 16) =     15.38721  eV     2   --> G_4            

 **************************************************************************

 **************************************************************************

                    xk=(   0.00000,   0.92500,   0.22500  )

     Band symmetry, C_s (m)     double point group:

     e(  1 -  2) =     -2.07453  eV     2   --> G_3            
     e(  1 -  2) =     -2.07453  eV     2   --> G_4            
     e(  3 -  4) =     -1.00520  eV     2   --> G_3            
     e(  3 -  4) =     -1.00520  eV     2   --> G_4            
     e(  5 -  6) =      2.82394  eV     2   --> G_3            
     e(  5 -  6) =      2.82394  eV     2   --> G_4            
     e(  7 -  8) =      2.96759  eV     2   --> G_3            
     e(  7 -  8) =      2.96759  eV     2   --> G_4            
     e(  9 - 10) =      7.89299  eV     2   --> G_3            
     e(  9 - 10) =      7.89299  eV     2   --> G_4            
     e( 11 - 12) =      8.10062  eV     2   --> G_3            
     e( 11 - 12) =      8.10062  eV     2   --> G_4            
     e( 13 - 14) =     13.70958  eV     2   --> G_3            
     e( 13 - 14) =     13.70958  eV     2   --> G_4            
     e( 15 - 16) =     15.04726  eV     2   --> G_3            
     e( 15 - 16) =     15.04726  eV     2   --> G_4            

 **************************************************************************

 **************************************************************************

                    xk=(   0.00000,   0.91250,   0.26250  )

     Band symmetry, C_s (m)     double point group:

     e(  1 -  2) =     -2.12391  eV     2   --> G_3            
     e(  1 -  2) =     -2.12391  eV     2   --> G_4            
     e(  3 -  4) =     -0.91763  eV     2   --> G_3            
     e(  3 -  4) =     -0.91763  eV     2   --> G_4            
     e(  5 -  6) =      2.68759  eV     2   --> G_3            
     e(  5 -  6) =      2.68759  eV     2   --> G_4            
     e(  7 -  8) =      2.90420  eV     2   --> G_3            
     e(  7 -  8) =      2.90420  eV     2   --> G_4            
     e(  9 - 10) =      8.21166  eV     2   --> G_3            
     e(  9 - 10) =      8.21166  eV     2   --> G_4            
     e( 11 - 12) =      8.44158  eV     2   --> G_3            
     e( 11 - 12) =      8.44158  eV     2   --> G_4            
     e( 13 - 14) =     13.11969  eV     2   --> G_3            
     e( 13 - 14) =     13.11969  eV     2   --> G_4            
     e( 15 - 16) =     14.68748  eV     2   --> G_3            
     e( 15 - 16) =     14.68748  eV     2   --> G_4            

 **************************************************************************

 **************************************************************************

                    xk=(   0.00000,   0.90000,   0.30000  )

     Band symmetry, C_s (m)     double point group:

     e(  1 -  2) =     -2.16480  eV     2   --> G_3            
     e(  1 -  2) =     -2.16480  eV     2   --> G_4            
     e(  3 -  4) =     -0.84190  eV     2   --> G_3            
     e(  3 -  4) =     -0.84190  eV     2   --> G_4            
     e(  5 -  6) =      2.55355  eV     2   --> G_3            
     e(  5 -  6) =      2.55355  eV     2   --> G_4            
     e(  7 -  8) =      2.86237  eV     2   --> G_3            
     e(  7 -  8) =      2.86237  eV     2   --> G_4            
     e(  9 - 10) =      8.55711  eV     2   --> G_3            
     e(  9 - 10) =      8.55711  eV     2   --> G_4            
     e( 11 - 12) =      8.80722  eV     2   --> G_3            
     e( 11 - 12) =      8.80722  eV     2   --> G_4            
     e( 13 - 14) =     12.53607  eV     2   --> G_3            
     e( 13 - 14) =     12.53607  eV     2   --> G_4            
     e( 15 - 16) =     14.31981  eV     2   --> G_3            
     e( 15 - 16) =     14.31981  eV     2   --> G_4            

 **************************************************************************

 **************************************************************************

                    xk=(  -0.00000,   0.88750,   0.33750  )

     Band symmetry, C_s (m)     double point group:

     e(  1 -  2) =     -2.19717  eV     2   --> G_3            
     e(  1 -  2) =     -2.19717  eV     2   --> G_4            
     e(  3 -  4) =     -0.78088  eV     2   --> G_3            
     e(  3 -  4) =     -0.78088  eV     2   --> G_4            
     e(  5 -  6) =      2.42545  eV     2   --> G_3            
     e(  5 -  6) =      2.42545  eV     2   --> G_4            
     e(  7 -  8) =      2.84714  eV     2   --> G_3            
     e(  7 -  8) =      2.84714  eV     2   --> G_4            
     e(  9 - 10) =      8.92501  eV     2   --> G_3            
     e(  9 - 10) =      8.92501  eV     2   --> G_4            
     e( 11 - 12) =      9.19238  eV     2   --> G_3            
     e( 11 - 12) =      9.19238  eV     2   --> G_4            
     e( 13 - 14) =     11.96456  eV     2   --> G_3            
     e( 13 - 14) =     11.96456  eV     2   --> G_4            
     e( 15 - 16) =     13.95147  eV     2   --> G_3            
     e( 15 - 16) =     13.95147  eV     2   --> G_4            

 **************************************************************************

 **************************************************************************

                    xk=(   0.00000,   0.87500,   0.37500  )

     Band symmetry, C_s (m)     double point group:

     e(  1 -  2) =     -2.22106  eV     2   --> G_3            
     e(  1 -  2) =     -2.22106  eV     2   --> G_4            
     e(  3 -  4) =     -0.73676  eV     2   --> G_3            
     e(  3 -  4) =     -0.73676  eV     2   --> G_4            
     e(  5 -  6) =      2.30611  eV     2   --> G_3            
     e(  5 -  6) =      2.30611  eV     2   --> G_4            
     e(  7 -  8) =      2.86182  eV     2   --> G_3            
     e(  7 -  8) =      2.86182  eV     2   --> G_4            
     e(  9 - 10) =      9.31163  eV     2   --> G_3            
     e(  9 - 10) =      9.31163  eV     2   --> G_4            
     e( 11 - 12) =      9.58862  eV     2   --> G_3            
     e( 11 - 12) =      9.58862  eV     2   --> G_4            
     e( 13 - 14) =     11.41429  eV     2   --> G_3            
     e( 13 - 14) =     11.41429  eV     2   --> G_4            
     e( 15 - 16) =     13.58707  eV     2   --> G_3            
     e( 15 - 16) =     13.58707  eV     2   --> G_4            

 **************************************************************************

 **************************************************************************

                    xk=(   0.00000,   0.86250,   0.41250  )

     Band symmetry, C_s (m)     double point group:

     e(  1 -  2) =     -2.23659  eV     2   --> G_3            
     e(  1 -  2) =     -2.23659  eV     2   --> G_4            
     e(  3 -  4) =     -0.71061  eV     2   --> G_3            
     e(  3 -  4) =     -0.71061  eV     2   --> G_4            
     e(  5 -  6) =      2.19769  eV     2   --> G_3            
     e(  5 -  6) =      2.19769  eV     2   --> G_4            
     e(  7 -  8) =      2.90768  eV     2   --> G_3            
     e(  7 -  8) =      2.90768  eV     2   --> G_4            
     e(  9 - 10) =      9.71344  eV     2   --> G_3            
     e(  9 - 10) =      9.71344  eV     2   --> G_4            
     e( 11 - 12) =      9.96420  eV     2   --> G_3            
     e( 11 - 12) =      9.96420  eV     2   --> G_4            
     e( 13 - 14) =     10.91788  eV     2   --> G_3            
     e( 13 - 14) =     10.91788  eV     2   --> G_4            
     e( 15 - 16) =     13.23014  eV     2   --> G_3            
     e( 15 - 16) =     13.23014  eV     2   --> G_4            

 **************************************************************************

 **************************************************************************

                    xk=(   0.00000,   0.85000,   0.45000  )

     Band symmetry, C_s (m)     double point group:

     e(  1 -  2) =     -2.24389  eV     2   --> G_3            
     e(  1 -  2) =     -2.24389  eV     2   --> G_4            
     e(  3 -  4) =     -0.70223  eV     2   --> G_3            
     e(  3 -  4) =     -0.70223  eV     2   --> G_4            
     e(  5 -  6) =      2.10191  eV     2   --> G_3            
     e(  5 -  6) =      2.10191  eV     2   --> G_4            
     e(  7 -  8) =      2.98378  eV     2   --> G_3            
     e(  7 -  8) =      2.98378  eV     2   --> G_4            
     e(  9 - 10) =     10.06740  eV     2   --> G_3            
     e(  9 - 10) =     10.06740  eV     2   --> G_4            
     e( 11 - 12) =     10.12684  eV     2   --> G_3            
     e( 11 - 12) =     10.12684  eV     2   --> G_4            
     e( 13 - 14) =     10.72808  eV     2   --> G_3            
     e( 13 - 14) =     10.72808  eV     2   --> G_4            
     e( 15 - 16) =     12.88423  eV     2   --> G_3            
     e( 15 - 16) =     12.88423  eV     2   --> G_4            

 **************************************************************************

 **************************************************************************

                    xk=(   0.00000,   0.83750,   0.48750  )

     Band symmetry, C_s (m)     double point group:

     e(  1 -  2) =     -2.24313  eV     2   --> G_3            
     e(  1 -  2) =     -2.24313  eV     2   --> G_4            
     e(  3 -  4) =     -0.71021  eV     2   --> G_3            
     e(  3 -  4) =     -0.71021  eV     2   --> G_4            
     e(  5 -  6) =      2.02009  eV     2   --> G_3            
     e(  5 -  6) =      2.02009  eV     2   --> G_4            
     e(  7 -  8) =      3.08687  eV     2   --> G_3            
     e(  7 -  8) =      3.08687  eV     2   --> G_4            
     e(  9 - 10) =      9.68481  eV     2   --> G_3            
     e(  9 - 10) =      9.68481  eV     2   --> G_4            
     e( 11 - 12) =     10.54444  eV     2   --> G_3            
     e( 11 - 12) =     10.54444  eV     2   --> G_4            
     e( 13 - 14) =     11.06153  eV     2   --> G_3            
     e( 13 - 14) =     11.06153  eV     2   --> G_4            
     e( 15 - 16) =     12.55490  eV     2   --> G_3            
     e( 15 - 16) =     12.55490  eV     2   --> G_4            

 **************************************************************************

 **************************************************************************

                    xk=(   0.00000,   0.82500,   0.52500  )

     Band symmetry, C_s (m)     double point group:

     e(  1 -  2) =     -2.23450  eV     2   --> G_3            
     e(  1 -  2) =     -2.23450  eV     2   --> G_4            
     e(  3 -  4) =     -0.73230  eV     2   --> G_3            
     e(  3 -  4) =     -0.73230  eV     2   --> G_4            
     e(  5 -  6) =      1.95330  eV     2   --> G_3            
     e(  5 -  6) =      1.95330  eV     2   --> G_4            
     e(  7 -  8) =      3.21150  eV     2   --> G_3            
     e(  7 -  8) =      3.21150  eV     2   --> G_4            
     e(  9 - 10) =      9.22547  eV     2   --> G_3            
     e(  9 - 10) =      9.22547  eV     2   --> G_4            
     e( 11 - 12) =     10.95156  eV     2   --> G_3            
     e( 11 - 12) =     10.95156  eV     2   --> G_4            
     e( 13 - 14) =     11.51144  eV     2   --> G_3            
     e( 13 - 14) =     11.51144  eV     2   --> G_4            
     e( 15 - 16) =     12.25688  eV     2   --> G_3            
     e( 15 - 16) =     12.25688  eV     2   --> G_4            

 **************************************************************************

 **************************************************************************

                    xk=(   0.00000,   0.81250,   0.56250  )

     Band symmetry, C_s (m)     double point group:

     e(  1 -  2) =     -2.21820  eV     2   --> G_3            
     e(  1 -  2) =     -2.21820  eV     2   --> G_4            
     e(  3 -  4) =     -0.76582  eV     2   --> G_3            
     e(  3 -  4) =     -0.76582  eV     2   --> G_4            
     e(  5 -  6) =      1.90239  eV     2   --> G_3            
     e(  5 -  6) =      1.90239  eV     2   --> G_4            
     e(  7 -  8) =      3.34991  eV     2   --> G_3            
     e(  7 -  8) =      3.34991  eV     2   --> G_4            
     e(  9 - 10) =      8.78077  eV     2   --> G_3            
     e(  9 - 10) =      8.78077  eV     2   --> G_4            
     e( 11 - 12) =     11.28207  eV     2   --> G_3            
     e( 11 - 12) =     11.28207  eV     2   --> G_4            
     e( 13 - 14) =     11.99079  eV     2   --> G_3            
     e( 13 - 14) =     11.99079  eV     2   --> G_4            
     e( 15 - 16) =     12.05545  eV     2   --> G_3            
     e( 15 - 16) =     12.05545  eV     2   --> G_4            

 **************************************************************************

 **************************************************************************

                    xk=(   0.00000,   0.80000,   0.60000  )

     Band symmetry, C_s (m)     double point group:

     e(  1 -  2) =     -2.19441  eV     2   --> G_3            
     e(  1 -  2) =     -2.19441  eV     2   --> G_4            
     e(  3 -  4) =     -0.80807  eV     2   --> G_3            
     e(  3 -  4) =     -0.80807  eV     2   --> G_4            
     e(  5 -  6) =      1.86801  eV     2   --> G_3            
     e(  5 -  6) =      1.86801  eV     2   --> G_4            
     e(  7 -  8) =      3.49175  eV     2   --> G_3            
     e(  7 -  8) =      3.49175  eV     2   --> G_4            
     e(  9 - 10) =      8.37120  eV     2   --> G_3            
     e(  9 - 10) =      8.37120  eV     2   --> G_4            
     e( 11 - 12) =     11.32016  eV     2   --> G_3            
     e( 11 - 12) =     11.32016  eV     2   --> G_4            
     e( 13 - 14) =     12.16205  eV     2   --> G_3            
     e( 13 - 14) =     12.16205  eV     2   --> G_4            
     e( 15 - 16) =     12.48865  eV     2   --> G_3            
     e( 15 - 16) =     12.48865  eV     2   --> G_4            

 **************************************************************************

 **************************************************************************

                    xk=(   0.00000,   0.78750,   0.63750  )

     Band symmetry, C_s (m)     double point group:

     e(  1 -  2) =     -2.16332  eV     2   --> G_3            
     e(  1 -  2) =     -2.16332  eV     2   --> G_4            
     e(  3 -  4) =     -0.85666  eV     2   --> G_3            
     e(  3 -  4) =     -0.85666  eV     2   --> G_4            
     e(  5 -  6) =      1.85063  eV     2   --> G_3            
     e(  5 -  6) =      1.85063  eV     2   --> G_4            
     e(  7 -  8) =      3.62347  eV     2   --> G_3            
     e(  7 -  8) =      3.62347  eV     2   --> G_4            
     e(  9 - 10) =      8.01181  eV     2   --> G_3            
     e(  9 - 10) =      8.01181  eV     2   --> G_4            
     e( 11 - 12) =     11.11311  eV     2   --> G_3            
     e( 11 - 12) =     11.11311  eV     2   --> G_4            
     e( 13 - 14) =     12.52934  eV     2   --> G_3            
     e( 13 - 14) =     12.52934  eV     2   --> G_4            
     e( 15 - 16) =     12.99710  eV     2   --> G_3            
     e( 15 - 16) =     12.99710  eV     2   --> G_4            

 **************************************************************************

 **************************************************************************

                    xk=(   0.00000,   0.77500,   0.67500  )

     Band symmetry, C_s (m)     double point group:

     e(  1 -  2) =     -2.12505  eV     2   --> G_3            
     e(  1 -  2) =     -2.12505  eV     2   --> G_4            
     e(  3 -  4) =     -0.90962  eV     2   --> G_3            
     e(  3 -  4) =     -0.90962  eV     2   --> G_4            
     e(  5 -  6) =      1.85060  eV     2   --> G_3            
     e(  5 -  6) =      1.85060  eV     2   --> G_4            
     e(  7 -  8) =      3.72798  eV     2   --> G_3            
     e(  7 -  8) =      3.72798  eV     2   --> G_4            
     e(  9 - 10) =      7.71952  eV     2   --> G_3            
     e(  9 - 10) =      7.71952  eV     2   --> G_4            
     e( 11 - 12) =     10.85484  eV     2   --> G_3            
     e( 11 - 12) =     10.85484  eV     2   --> G_4            
     e( 13 - 14) =     12.95604  eV     2   --> G_3            
     e( 13 - 14) =     12.95604  eV     2   --> G_4            
     e( 15 - 16) =     13.51299  eV     2   --> G_3            
     e( 15 - 16) =     13.51299  eV     2   --> G_4            

 **************************************************************************

 **************************************************************************

                    xk=(  -0.00000,   0.76250,   0.71250  )

     Band symmetry, C_s (m)     double point group:

     e(  1 -  2) =     -2.07971  eV     2   --> G_3            
     e(  1 -  2) =     -2.07971  eV     2   --> G_4            
     e(  3 -  4) =     -0.96551  eV     2   --> G_3            
     e(  3 -  4) =     -0.96551  eV     2   --> G_4            
     e(  5 -  6) =      1.86808  eV     2   --> G_3            
     e(  5 -  6) =      1.86808  eV     2   --> G_4            
     e(  7 -  8) =      3.78584  eV     2   --> G_3            
     e(  7 -  8) =      3.78584  eV     2   --> G_4            
     e(  9 - 10) =      7.51336  eV     2   --> G_3            
     e(  9 - 10) =      7.51336  eV     2   --> G_4            
     e( 11 - 12) =     10.59212  eV     2   --> G_3            
     e( 11 - 12) =     10.59212  eV     2   --> G_4            
     e( 13 - 14) =     13.37495  eV     2   --> G_3            
     e( 13 - 14) =     13.37495  eV     2   --> G_4            
     e( 15 - 16) =     14.02736  eV     2   --> G_3            
     e( 15 - 16) =     14.02736  eV     2   --> G_4            

 **************************************************************************

 **************************************************************************

                    xk=(   0.00000,   0.75000,   0.75000  )

     double point group C_2v (mm2) 
     there are  5 classes and  1 irreducible representations
     the character table:

       E     -E     C2    s_v   s_v'
                   -C2   -s_v  -s_v'
G_5    2.00 -2.00  0.00  0.00  0.00

     the symmetry operations in each class and the name of the first element:

     E             1
                                                                 
     -E           -1
                                                                 
      C2  -C2      2   -2
                                                                 
      s_v -s_v     4   -4
                                                                 
      s_v'-s_v'    3   -3
                                                                 

     Band symmetry, C_2v (mm2)  double point group:

     e(  1 -  2) =     -2.02736  eV     2   --> G_5  D_5       
     e(  3 -  4) =     -1.02346  eV     2   --> G_5  D_5       
     e(  5 -  6) =      1.90310  eV     2   --> G_5  D_5       
     e(  7 -  8) =      3.77991  eV     2   --> G_5  D_5       
     e(  9 - 10) =      7.41023  eV     2   --> G_5  D_5       
     e( 11 - 12) =     10.33598  eV     2   --> G_5  D_5       
     e( 13 - 14) =     13.67333  eV     2   --> G_5  D_5       
     e( 15 - 16) =     14.22017  eV     2   --> G_5  D_5       

 **************************************************************************

 **************************************************************************

                    xk=(   0.00000,   0.71250,   0.71250  )

     Band symmetry, C_2v (mm2)  double point group:

     e(  1 -  2) =     -2.21513  eV     2   --> G_5  D_5       
     e(  3 -  4) =     -0.83394  eV     2   --> G_5  D_5       
     e(  5 -  6) =      1.80878  eV     2   --> G_5  D_5       
     e(  7 -  8) =      3.91202  eV     2   --> G_5  D_5       
     e(  9 - 10) =      7.56334  eV     2   --> G_5  D_5       
     e( 11 - 12) =     11.09926  eV     2   --> G_5  D_5       
     e( 13 - 14) =     13.21678  eV     2   --> G_5  D_5       
     e( 15 - 16) =     13.75955  eV     2   --> G_5  D_5       

 **************************************************************************

 **************************************************************************

                    xk=(   0.00000,   0.67500,   0.67500  )

     Band symmetry, C_2v (mm2)  double point group:

     e(  1 -  2) =     -2.43964  eV     2   --> G_5  D_5       
     e(  3 -  4) =     -0.61845  eV     2   --> G_5  D_5       
     e(  5 -  6) =      1.78747  eV     2   --> G_5  D_5       
     e(  7 -  8) =      4.05887  eV     2   --> G_5  D_5       
     e(  9 - 10) =      7.73343  eV     2   --> G_5  D_5       
     e( 11 - 12) =     11.85404  eV     2   --> G_5  D_5       
     e( 13 - 14) =     12.77699  eV     2   --> G_5  D_5       
     e( 15 - 16) =     13.35527  eV     2   --> G_5  D_5       

 **************************************************************************

 **************************************************************************

                    xk=(   0.00000,   0.63750,   0.63750  )

     Band symmetry, C_2v (mm2)  double point group:

     e(  1 -  2) =     -2.69268  eV     2   --> G_5  D_5       
     e(  3 -  4) =     -0.37719  eV     2   --> G_5  D_5       
     e(  5 -  6) =      1.83381  eV     2   --> G_5  D_5       
     e(  7 -  8) =      4.21874  eV     2   --> G_5  D_5       
     e(  9 - 10) =      7.91816  eV     2   --> G_5  D_5       
     e( 11 - 12) =     12.35478  eV     2   --> G_5  D_5       
     e( 13 - 14) =     12.39314  eV     2   --> G_5  D_5       
     e( 15 - 16) =     13.20915  eV     2   --> G_5  D_5       

 **************************************************************************

 **************************************************************************

                    xk=(   0.00000,   0.60000,   0.60000  )

     Band symmetry, C_2v (mm2)  double point group:

     e(  1 -  2) =     -2.96447  eV     2   --> G_5  D_5       
     e(  3 -  4) =     -0.11042  eV     2   --> G_5  D_5       
     e(  5 -  6) =      1.93976  eV     2   --> G_5  D_5       
     e(  7 -  8) =      4.38952  eV     2   --> G_5  D_5       
     e(  9 - 10) =      8.11431  eV     2   --> G_5  D_5       
     e( 11 - 12) =     11.95531  eV     2   --> G_5  D_5       
     e( 13 - 14) =     12.25797  eV     2   --> G_5  D_5       
     e( 15 - 16) =     13.05724  eV     2   --> G_5  D_5       

 **************************************************************************

 **************************************************************************

                    xk=(   0.00000,   0.56250,   0.56250  )

     Band symmetry, C_2v (mm2)  double point group:

     e(  1 -  2) =     -3.24561  eV     2   --> G_5  D_5       
     e(  3 -  4) =      0.18159  eV     2   --> G_5  D_5       
     e(  5 -  6) =      2.09688  eV     2   --> G_5  D_5       
     e(  7 -  8) =      4.56870  eV     2   --> G_5  D_5       
     e(  9 - 10) =      8.31757  eV     2   --> G_5  D_5       
     e( 11 - 12) =     11.57624  eV     2   --> G_5  D_5       
     e( 13 - 14) =     11.91900  eV     2   --> G_5  D_5       
     e( 15 - 16) =     12.76549  eV     2   --> G_5  D_5       

 **************************************************************************

 **************************************************************************

                    xk=(   0.00000,   0.52500,   0.52500  )

     Band symmetry, C_2v (mm2)  double point group:

     e(  1 -  2) =     -3.52812  eV     2   --> G_5  D_5       
     e(  3 -  4) =      0.49849  eV     2   --> G_5  D_5       
     e(  5 -  6) =      2.29754  eV     2   --> G_5  D_5       
     e(  7 -  8) =      4.75327  eV     2   --> G_5  D_5       
     e(  9 - 10) =      8.52206  eV     2   --> G_5  D_5       
     e( 11 - 12) =     11.21945  eV     2   --> G_5  D_5       
     e( 13 - 14) =     11.56837  eV     2   --> G_5  D_5       
     e( 15 - 16) =     12.50529  eV     2   --> G_5  D_5       

 **************************************************************************

 **************************************************************************

                    xk=(   0.00000,   0.48750,   0.48750  )

     Band symmetry, C_2v (mm2)  double point group:

     e(  1 -  2) =     -3.80567  eV     2   --> G_5  D_5       
     e(  3 -  4) =      0.83986  eV     2   --> G_5  D_5       
     e(  5 -  6) =      2.53526  eV     2   --> G_5  D_5       
     e(  7 -  8) =      4.93978  eV     2   --> G_5  D_5       
     e(  9 - 10) =      8.71999  eV     2   --> G_5  D_5       
     e( 11 - 12) =     10.88559  eV     2   --> G_5  D_5       
     e( 13 - 14) =     11.23082  eV     2   --> G_5  D_5       
     e( 15 - 16) =     12.28296  eV     2   --> G_5  D_5       

 **************************************************************************

 **************************************************************************

                    xk=(   0.00000,   0.45000,   0.45000  )

     Band symmetry, C_2v (mm2)  double point group:

     e(  1 -  2) =     -4.07340  eV     2   --> G_5  D_5       
     e(  3 -  4) =      1.20519  eV     2   --> G_5  D_5       
     e(  5 -  6) =      2.80452  eV     2   --> G_5  D_5       
     e(  7 -  8) =      5.12435  eV     2   --> G_5  D_5       
     e(  9 - 10) =      8.90141  eV     2   --> G_5  D_5       
     e( 11 - 12) =     10.57515  eV     2   --> G_5  D_5       
     e( 13 - 14) =     10.91213  eV     2   --> G_5  D_5       
     e( 15 - 16) =     12.10536  eV     2   --> G_5  D_5       

 **************************************************************************

 **************************************************************************

                    xk=(   0.00000,   0.41250,   0.41250  )

     Band symmetry, C_2v (mm2)  double point group:

     e(  1 -  2) =     -4.32761  eV     2   --> G_5  D_5       
     e(  3 -  4) =      1.59384  eV     2   --> G_5  D_5       
     e(  5 -  6) =      3.10050  eV     2   --> G_5  D_5       
     e(  7 -  8) =      5.30281  eV     2   --> G_5  D_5       
     e(  9 - 10) =      9.05488  eV     2   --> G_5  D_5       
     e( 11 - 12) =     10.28856  eV     2   --> G_5  D_5       
     e( 13 - 14) =     10.61418  eV     2   --> G_5  D_5       
     e( 15 - 16) =     11.97863  eV     2   --> G_5  D_5       

 **************************************************************************

 **************************************************************************

                    xk=(   0.00000,   0.37500,   0.37500  )

     Band symmetry, C_2v (mm2)  double point group:

     e(  1 -  2) =     -4.56553  eV     2   --> G_5  D_5       
     e(  3 -  4) =      2.00498  eV     2   --> G_5  D_5       
     e(  5 -  6) =      3.41864  eV     2   --> G_5  D_5       
     e(  7 -  8) =      5.47096  eV     2   --> G_5  D_5       
     e(  9 - 10) =      9.16965  eV     2   --> G_5  D_5       
     e( 11 - 12) =     10.02611  eV     2   --> G_5  D_5       
     e( 13 - 14) =     10.33755  eV     2   --> G_5  D_5       
     e( 15 - 16) =     11.90453  eV     2   --> G_5  D_5       

 **************************************************************************

 **************************************************************************

                    xk=(   0.00000,   0.33750,   0.33750  )

     Band symmetry, C_2v (mm2)  double point group:

     e(  1 -  2) =     -4.78503  eV     2   --> G_5  D_5       
     e(  3 -  4) =      2.43753  eV     2   --> G_5  D_5       
     e(  5 -  6) =      3.75439  eV     2   --> G_5  D_5       
     e(  7 -  8) =      5.62493  eV     2   --> G_5  D_5       
     e(  9 - 10) =      9.23941  eV     2   --> G_5  D_5       
     e( 11 - 12) =      9.78809  eV     2   --> G_5  D_5       
     e( 13 - 14) =     10.08221  eV     2   --> G_5  D_5       
     e( 15 - 16) =     11.87381  eV     2   --> G_5  D_5       

 **************************************************************************

 **************************************************************************

                    xk=(   0.00000,   0.30000,   0.30000  )

     Band symmetry, C_2v (mm2)  double point group:

     e(  1 -  2) =     -4.98451  eV     2   --> G_5  D_5       
     e(  3 -  4) =      2.89001  eV     2   --> G_5  D_5       
     e(  5 -  6) =      4.10276  eV     2   --> G_5  D_5       
     e(  7 -  8) =      5.76157  eV     2   --> G_5  D_5       
     e(  9 - 10) =      9.26523  eV     2   --> G_5  D_5       
     e( 11 - 12) =      9.57474  eV     2   --> G_5  D_5       
     e( 13 - 14) =      9.84779  eV     2   --> G_5  D_5       
     e( 15 - 16) =     11.85737  eV     2   --> G_5  D_5       

 **************************************************************************

 **************************************************************************

                    xk=(   0.00000,   0.26250,   0.26250  )

     Band symmetry, C_2v (mm2)  double point group:

     e(  1 -  2) =     -5.16273  eV     2   --> G_5  D_5       
     e(  3 -  4) =      3.36028  eV     2   --> G_5  D_5       
     e(  5 -  6) =      4.45794  eV     2   --> G_5  D_5       
     e(  7 -  8) =      5.87884  eV     2   --> G_5  D_5       
     e(  9 - 10) =      9.25477  eV     2   --> G_5  D_5       
     e( 11 - 12) =      9.38643  eV     2   --> G_5  D_5       
     e( 13 - 14) =      9.63368  eV     2   --> G_5  D_5       
     e( 15 - 16) =     11.79796  eV     2   --> G_5  D_5       

 **************************************************************************

 **************************************************************************

                    xk=(   0.00000,   0.22500,   0.22500  )

     Band symmetry, C_2v (mm2)  double point group:

     e(  1 -  2) =     -5.31873  eV     2   --> G_5  D_5       
     e(  3 -  4) =      3.84517  eV     2   --> G_5  D_5       
     e(  5 -  6) =      4.81280  eV     2   --> G_5  D_5       
     e(  7 -  8) =      5.97597  eV     2   --> G_5  D_5       
     e(  9 - 10) =      9.21123  eV     2   --> G_5  D_5       
     e( 11 - 12) =      9.23083  eV     2   --> G_5  D_5       
     e( 13 - 14) =      9.43922  eV     2   --> G_5  D_5       
     e( 15 - 16) =     11.61732  eV     2   --> G_5  D_5       

 **************************************************************************

 **************************************************************************

                    xk=(   0.00000,   0.18750,   0.18750  )

     Band symmetry, C_2v (mm2)  double point group:

     e(  1 -  2) =     -5.45179  eV     2   --> G_5  D_5       
     e(  3 -  4) =      4.33955  eV     2   --> G_5  D_5       
     e(  5 -  6) =      5.15822  eV     2   --> G_5  D_5       
     e(  7 -  8) =      6.05349  eV     2   --> G_5  D_5       
     e(  9 - 10) =      9.08189  eV     2   --> G_5  D_5       
     e( 11 - 12) =      9.17012  eV     2   --> G_5  D_5       
     e( 13 - 14) =      9.26404  eV     2   --> G_5  D_5       
     e( 15 - 16) =     11.27436  eV     2   --> G_5  D_5       

 **************************************************************************

 **************************************************************************

                    xk=(   0.00000,   0.15000,   0.15000  )

     Band symmetry, C_2v (mm2)  double point group:

     e(  1 -  2) =     -5.56133  eV     2   --> G_5  D_5       
     e(  3 -  4) =      4.83479  eV     2   --> G_5  D_5       
     e(  5 -  6) =      5.48234  eV     2   --> G_5  D_5       
     e(  7 -  8) =      6.11289  eV     2   --> G_5  D_5       
     e(  9 - 10) =      8.96841  eV     2   --> G_5  D_5       
     e( 11 - 12) =      9.10216  eV     2   --> G_5  D_5       
     e( 13 - 14) =      9.11440  eV     2   --> G_5  D_5       
     e( 15 - 16) =     10.81777  eV     2   --> G_5  D_5       

 **************************************************************************

 **************************************************************************

                    xk=(   0.00000,   0.11250,   0.11250  )

     Band symmetry, C_2v (mm2)  double point group:

     e(  1 -  2) =     -5.64693  eV     2   --> G_5  D_5       
     e(  3 -  4) =      5.31494  eV     2   --> G_5  D_5       
     e(  5 -  6) =      5.76962  eV     2   --> G_5  D_5       
     e(  7 -  8) =      6.15627  eV     2   --> G_5  D_5       
     e(  9 - 10) =      8.87945  eV     2   --> G_5  D_5       
     e( 11 - 12) =      8.97288  eV     2   --> G_5  D_5       
     e( 13 - 14) =      9.03670  eV     2   --> G_5  D_5       
     e( 15 - 16) =     10.33684  eV     2   --> G_5  D_5       

 **************************************************************************

 **************************************************************************

                    xk=(   0.00000,   0.07500,   0.07500  )

     Band symmetry, C_2v (mm2)  double point group:

     e(  1 -  2) =     -5.70828  eV     2   --> G_5  D_5       
     e(  3 -  4) =      5.74874  eV     2   --> G_5  D_5       
     e(  5 -  6) =      6.00038  eV     2   --> G_5  D_5       
     e(  7 -  8) =      6.18613  eV     2   --> G_5  D_5       
     e(  9 - 10) =      8.81446  eV     2   --> G_5  D_5       
     e( 11 - 12) =      8.86652  eV     2   --> G_5  D_5       
     e( 13 - 14) =      8.94321  eV     2   --> G_5  D_5       
     e( 15 - 16) =      9.92053  eV     2   --> G_5  D_5       

 **************************************************************************

 **************************************************************************

                    xk=(   0.00000,   0.03750,   0.03750  )

     Band symmetry, C_2v (mm2)  double point group:

     e(  1 -  2) =     -5.74518  eV     2   --> G_5  D_5       
     e(  3 -  4) =      6.07260  eV     2   --> G_5  D_5       
     e(  5 -  6) =      6.15288  eV     2   --> G_5  D_5       
     e(  7 -  8) =      6.20669  eV     2   --> G_5  D_5       
     e(  9 - 10) =      8.76943  eV     2   --> G_5  D_5       
     e( 11 - 12) =      8.79932  eV     2   --> G_5  D_5       
     e( 13 - 14) =      8.83257  eV     2   --> G_5  D_5       
     e( 15 - 16) =      9.65262  eV     2   --> G_5  D_5       

 **************************************************************************

 **************************************************************************

                    xk=(   0.00000,   0.00000,   0.00000  )

     double point group O_h (m-3m) 
     there are 16 classes and  6 irreducible representations
     the character table:

       E     -E    8C3   -8C3   3C2  6C4   -6C4   6C2' i     -i    8S6   -8S6 
                               -3C2              -6C2'                        
G_6+   2.00 -2.00  1.00 -1.00  0.00  1.41 -1.41  0.00  2.00 -2.00  1.00 -1.00
G_7+   2.00 -2.00  1.00 -1.00  0.00 -1.41  1.41  0.00  2.00 -2.00  1.00 -1.00
G_8+   4.00 -4.00 -1.00  1.00  0.00  0.00  0.00  0.00  4.00 -4.00 -1.00  1.00
G_6-   2.00 -2.00  1.00 -1.00  0.00  1.41 -1.41  0.00 -2.00  2.00 -1.00  1.00
G_7-   2.00 -2.00  1.00 -1.00  0.00 -1.41  1.41  0.00 -2.00  2.00 -1.00  1.00
G_8-   4.00 -4.00 -1.00  1.00  0.00  0.00  0.00  0.00 -4.00  4.00  1.00 -1.00

        3s_h 6S4   -6S4   6s_d
       -3s_h             -6s_d
G_6+   0.00  1.41 -1.41  0.00
G_7+   0.00 -1.41  1.41  0.00
G_8+   0.00  0.00  0.00  0.00
G_6-   0.00 -1.41  1.41  0.00
G_7-   0.00  1.41 -1.41  0.00
G_8-   0.00  0.00  0.00  0.00

     the symmetry operations in each class and the name of the first element:

     E             1
                                                                 
     -E           -1
                                                                 
     8C3          17   19   20   18   24   21   22   23
                                                                 
     -8C3        -17  -19  -20  -18  -24  -21  -22  -23
                                                                 
      3C2 -3C2     2   -2    4   -4    3   -3
                                                                 
     6C4           7    8   15   16   12   11
                                                                 
     -6C4         -7   -8  -15  -16  -12  -11
                                                                 
      6C2'-6C2'    5   -5   -6    6   14  -13  -14   13   10   -9  -10    9
                                                                 
     i            25
                                                                 
     -i          -25
                                                                 
     8S6          41   43   44   42   48   45   46   47
                                                                 
     -8S6        -41  -43  -44  -42  -48  -45  -46  -47
                                                                 
      3s_h-3s_h   26  -26   28  -28   27  -27
                                                                 
     6S4          31   32   39   40   36   35
                                                                 
     -6S4        -31  -32  -39  -40  -36  -35
                                                                 
      6s_d-6s_d   29  -29  -30   30   38  -37  -38   37   34  -33  -34   33
                                                                 

     Band symmetry, O_h (m-3m)  double point group:

     e(  1 -  2) =     -5.75749  eV     2   --> G_6+           
     e(  3 -  4) =      6.17445  eV     2   --> G_7+           
     e(  5 -  8) =      6.22244  eV     4   --> G_8+           
     e(  9 - 10) =      8.74421  eV     2   --> G_6-           
     e( 11 - 14) =      8.77916  eV     4   --> G_8-           
     e( 15 - 16) =      9.56624  eV     2   --> G_7-           

 **************************************************************************

     BANDS        :   1m37.65s CPU     24.95s WALL


   This run was terminated on:   6:25: 7  19Dec2024            

=------------------------------------------------------------------------------=
   JOB DONE.
=------------------------------------------------------------------------------=
