
     Program PWSCF v.7.0 starts on 19Dec2024 at  6:22:53 

     This program is part of the open-source Quantum ESPRESSO suite
     for quantum simulation of materials; please cite
         "P. Giannozzi et al., J. Phys.:Condens. Matter 21 395502 (2009);
         "P. Giannozzi et al., J. Phys.:Condens. Matter 29 465901 (2017);
         "P. Giannozzi et al., J. Chem. Phys. 152 154105 (2020);
          URL http://www.quantum-espresso.org", 
     in publications or presentations arising from this work. More details at
     http://www.quantum-espresso.org/quote

     Parallel version (MPI & OpenMP), running on       2 processor cores
     Number of MPI processes:                 2
     Threads/MPI process:                     1

     MPI processes distributed on     1 nodes
     R & G space division:  proc/nbgrp/npool/nimage =       2
     336 MiB available memory on the printing compute node when the environment starts

     Reading input from pw.bands.w_soc.in

     Current dimensions of program PWSCF are:
     Max number of different atomic species (ntypx) = 10
     Max number of k-points (npk) =  40000
     Max angular momentum in pseudopotentials (lmaxx) =  4
     Message from routine volume:
     axis vectors are left-handed

     Atomic positions and unit cell read from directory:
     ./outputs/si.save/

     Message from routine volume:
     axis vectors are left-handed
     file Si.rel-pbe-n-kjpaw_psl.1.0.0.UPF: wavefunction(s)  3S 3P 3P renormalized

     IMPORTANT: XC functional enforced from input :
     Exchange-correlation= PBE
                           (   1   4   3   4   0   0   0)
     Any further DFT definition will be discarded
     Please, verify this is what you really want

     Message from routine setup:
     using ibrav=0 with symmetry is DISCOURAGED, use correct ibrav instead

     Subspace diagonalization in iterative solution of the eigenvalue problem:
     a serial algorithm will be used


     Parallelization info
     --------------------
     sticks:   dense  smooth     PW     G-vecs:    dense   smooth      PW
     Min         366     366    105                 6469     6469    1042
     Max         367     367    106                 6470     6470    1043
     Sum         733     733    211                12939    12939    2085

     Using Slab Decomposition



     bravais-lattice index     =            0
     lattice parameter (alat)  =      10.2625  a.u.
     unit-cell volume          =     270.2116 (a.u.)^3
     number of atoms/cell      =            2
     number of atomic types    =            1
     number of electrons       =         8.00
     number of Kohn-Sham states=           16
     kinetic-energy cutoff     =      50.0000  Ry
     charge density cutoff     =     200.0000  Ry
     Exchange-correlation= PBE
                           (   1   4   3   4   0   0   0)
     Non magnetic calculation with spin-orbit


     celldm(1)=  10.262536  celldm(2)=   0.000000  celldm(3)=   0.000000
     celldm(4)=   0.000000  celldm(5)=   0.000000  celldm(6)=   0.000000

     crystal axes: (cart. coord. in units of alat)
               a(1) = (   0.500000   0.500000   0.000000 )  
               a(2) = (   0.500000   0.000000   0.500000 )  
               a(3) = (   0.000000   0.500000   0.500000 )  

     reciprocal axes: (cart. coord. in units 2 pi/alat)
               b(1) = (  1.000000  1.000000 -1.000000 )  
               b(2) = (  1.000000 -1.000000  1.000000 )  
               b(3) = ( -1.000000  1.000000  1.000000 )  


     PseudoPot. # 1 for Si read from file:
     ../Pseudopotentials/Si.rel-pbe-n-kjpaw_psl.1.0.0.UPF
     MD5 check sum: d74f6caf6830ea4c2076867160cab1b0
     Pseudo is Projector augmented-wave + core cor, Zval =  4.0
     Generated using &quot;atomic&quot; code by A. Dal Corso  v.6.3
     Shape of augmentation charge: PSQ
     Using radial grid of 1141 points, 10 beta functions with: 
                l(1) =   0
                l(2) =   0
                l(3) =   1
                l(4) =   1
                l(5) =   1
                l(6) =   1
                l(7) =   2
                l(8) =   2
                l(9) =   2
               l(10) =   2
     Q(r) pseudized with 0 coefficients 


     atomic species   valence    mass     pseudopotential
        Si             4.00    28.08500     Si( 1.00)

     48 Sym. Ops., with inversion, found (24 have fractional translation)


                                    s                        frac. trans.

      isym =  1     identity                                     

 cryst.   s( 1) = (     1          0          0      )
                  (     0          1          0      )
                  (     0          0          1      )

 cart.    s( 1) = (  1.0000000  0.0000000  0.0000000 )
                  (  0.0000000  1.0000000  0.0000000 )
                  (  0.0000000  0.0000000  1.0000000 )


      isym =  2     180 deg rotation - cart. axis [0,0,1]        

 cryst.   s( 2) = (    -1          0          0      )
                  (    -1          0          1      )
                  (    -1          1          0      )

 cart.    s( 2) = ( -1.0000000  0.0000000  0.0000000 )
                  (  0.0000000 -1.0000000  0.0000000 )
                  (  0.0000000  0.0000000  1.0000000 )


      isym =  3     180 deg rotation - cart. axis [0,1,0]        

 cryst.   s( 3) = (     0         -1          1      )
                  (     0         -1          0      )
                  (     1         -1          0      )

 cart.    s( 3) = ( -1.0000000  0.0000000  0.0000000 )
                  (  0.0000000  1.0000000  0.0000000 )
                  (  0.0000000  0.0000000 -1.0000000 )


      isym =  4     180 deg rotation - cart. axis [1,0,0]        

 cryst.   s( 4) = (     0          1         -1      )
                  (     1          0         -1      )
                  (     0          0         -1      )

 cart.    s( 4) = (  1.0000000  0.0000000  0.0000000 )
                  (  0.0000000 -1.0000000  0.0000000 )
                  (  0.0000000  0.0000000 -1.0000000 )


      isym =  5     180 deg rotation - cart. axis [1,1,0]        

 cryst.   s( 5) = (     1          0          0      )    f =( -0.2500000 )
                  (     1         -1          0      )       ( -0.2500000 )
                  (     1          0         -1      )       ( -0.2500000 )

 cart.    s( 5) = (  0.0000000  1.0000000  0.0000000 )    f =( -0.2500000 )
                  (  1.0000000  0.0000000  0.0000000 )       ( -0.2500000 )
                  (  0.0000000  0.0000000 -1.0000000 )       ( -0.2500000 )


      isym =  6     180 deg rotation - cart. axis [1,-1,0]       

 cryst.   s( 6) = (    -1          0          0      )    f =( -0.2500000 )
                  (     0          0         -1      )       ( -0.2500000 )
                  (     0         -1          0      )       ( -0.2500000 )

 cart.    s( 6) = (  0.0000000 -1.0000000  0.0000000 )    f =( -0.2500000 )
                  ( -1.0000000  0.0000000  0.0000000 )       ( -0.2500000 )
                  (  0.0000000  0.0000000 -1.0000000 )       ( -0.2500000 )


      isym =  7      90 deg rotation - cart. axis [0,0,-1]       

 cryst.   s( 7) = (     0          1         -1      )    f =( -0.2500000 )
                  (    -1          1          0      )       ( -0.2500000 )
                  (     0          1          0      )       ( -0.2500000 )

 cart.    s( 7) = (  0.0000000  1.0000000  0.0000000 )    f =( -0.2500000 )
                  ( -1.0000000  0.0000000  0.0000000 )       ( -0.2500000 )
                  (  0.0000000  0.0000000  1.0000000 )       ( -0.2500000 )


      isym =  8      90 deg rotation - cart. axis [0,0,1]        

 cryst.   s( 8) = (     0         -1          1      )    f =( -0.2500000 )
                  (     0          0          1      )       ( -0.2500000 )
                  (    -1          0          1      )       ( -0.2500000 )

 cart.    s( 8) = (  0.0000000 -1.0000000  0.0000000 )    f =( -0.2500000 )
                  (  1.0000000  0.0000000  0.0000000 )       ( -0.2500000 )
                  (  0.0000000  0.0000000  1.0000000 )       ( -0.2500000 )


      isym =  9     180 deg rotation - cart. axis [1,0,1]        

 cryst.   s( 9) = (    -1          1          0      )    f =( -0.2500000 )
                  (     0          1          0      )       ( -0.2500000 )
                  (     0          1         -1      )       ( -0.2500000 )

 cart.    s( 9) = (  0.0000000  0.0000000  1.0000000 )    f =( -0.2500000 )
                  (  0.0000000 -1.0000000  0.0000000 )       ( -0.2500000 )
                  (  1.0000000  0.0000000  0.0000000 )       ( -0.2500000 )


      isym = 10     180 deg rotation - cart. axis [-1,0,1]       

 cryst.   s(10) = (     0          0         -1      )    f =( -0.2500000 )
                  (     0         -1          0      )       ( -0.2500000 )
                  (    -1          0          0      )       ( -0.2500000 )

 cart.    s(10) = (  0.0000000  0.0000000 -1.0000000 )    f =( -0.2500000 )
                  (  0.0000000 -1.0000000  0.0000000 )       ( -0.2500000 )
                  ( -1.0000000  0.0000000  0.0000000 )       ( -0.2500000 )


      isym = 11      90 deg rotation - cart. axis [0,1,0]        

 cryst.   s(11) = (     1         -1          0      )    f =( -0.2500000 )
                  (     1          0         -1      )       ( -0.2500000 )
                  (     1          0          0      )       ( -0.2500000 )

 cart.    s(11) = (  0.0000000  0.0000000  1.0000000 )    f =( -0.2500000 )
                  (  0.0000000  1.0000000  0.0000000 )       ( -0.2500000 )
                  ( -1.0000000  0.0000000  0.0000000 )       ( -0.2500000 )


      isym = 12      90 deg rotation - cart. axis [0,-1,0]       

 cryst.   s(12) = (     0          0          1      )    f =( -0.2500000 )
                  (    -1          0          1      )       ( -0.2500000 )
                  (     0         -1          1      )       ( -0.2500000 )

 cart.    s(12) = (  0.0000000  0.0000000 -1.0000000 )    f =( -0.2500000 )
                  (  0.0000000  1.0000000  0.0000000 )       ( -0.2500000 )
                  (  1.0000000  0.0000000  0.0000000 )       ( -0.2500000 )


      isym = 13     180 deg rotation - cart. axis [0,1,1]        

 cryst.   s(13) = (    -1          0          1      )    f =( -0.2500000 )
                  (     0         -1          1      )       ( -0.2500000 )
                  (     0          0          1      )       ( -0.2500000 )

 cart.    s(13) = ( -1.0000000  0.0000000  0.0000000 )    f =( -0.2500000 )
                  (  0.0000000  0.0000000  1.0000000 )       ( -0.2500000 )
                  (  0.0000000  1.0000000  0.0000000 )       ( -0.2500000 )


      isym = 14     180 deg rotation - cart. axis [0,1,-1]       

 cryst.   s(14) = (     0         -1          0      )    f =( -0.2500000 )
                  (    -1          0          0      )       ( -0.2500000 )
                  (     0          0         -1      )       ( -0.2500000 )

 cart.    s(14) = ( -1.0000000  0.0000000  0.0000000 )    f =( -0.2500000 )
                  (  0.0000000  0.0000000 -1.0000000 )       ( -0.2500000 )
                  (  0.0000000 -1.0000000  0.0000000 )       ( -0.2500000 )


      isym = 15      90 deg rotation - cart. axis [-1,0,0]       

 cryst.   s(15) = (     1          0         -1      )    f =( -0.2500000 )
                  (     1          0          0      )       ( -0.2500000 )
                  (     1         -1          0      )       ( -0.2500000 )

 cart.    s(15) = (  1.0000000  0.0000000  0.0000000 )    f =( -0.2500000 )
                  (  0.0000000  0.0000000  1.0000000 )       ( -0.2500000 )
                  (  0.0000000 -1.0000000  0.0000000 )       ( -0.2500000 )


      isym = 16      90 deg rotation - cart. axis [1,0,0]        

 cryst.   s(16) = (     0          1          0      )    f =( -0.2500000 )
                  (     0          1         -1      )       ( -0.2500000 )
                  (    -1          1          0      )       ( -0.2500000 )

 cart.    s(16) = (  1.0000000  0.0000000  0.0000000 )    f =( -0.2500000 )
                  (  0.0000000  0.0000000 -1.0000000 )       ( -0.2500000 )
                  (  0.0000000  1.0000000  0.0000000 )       ( -0.2500000 )


      isym = 17     120 deg rotation - cart. axis [-1,-1,-1]     

 cryst.   s(17) = (     0          1          0      )
                  (     0          0          1      )
                  (     1          0          0      )

 cart.    s(17) = (  0.0000000  1.0000000  0.0000000 )
                  (  0.0000000  0.0000000  1.0000000 )
                  (  1.0000000  0.0000000  0.0000000 )


      isym = 18     120 deg rotation - cart. axis [-1,1,1]       

 cryst.   s(18) = (     0         -1          0      )
                  (     1         -1          0      )
                  (     0         -1          1      )

 cart.    s(18) = (  0.0000000 -1.0000000  0.0000000 )
                  (  0.0000000  0.0000000  1.0000000 )
                  ( -1.0000000  0.0000000  0.0000000 )


      isym = 19     120 deg rotation - cart. axis [1,1,-1]       

 cryst.   s(19) = (     1          0         -1      )
                  (     0          0         -1      )
                  (     0          1         -1      )

 cart.    s(19) = (  0.0000000  1.0000000  0.0000000 )
                  (  0.0000000  0.0000000 -1.0000000 )
                  ( -1.0000000  0.0000000  0.0000000 )


      isym = 20     120 deg rotation - cart. axis [1,-1,1]       

 cryst.   s(20) = (    -1          0          1      )
                  (    -1          1          0      )
                  (    -1          0          0      )

 cart.    s(20) = (  0.0000000 -1.0000000  0.0000000 )
                  (  0.0000000  0.0000000 -1.0000000 )
                  (  1.0000000  0.0000000  0.0000000 )


      isym = 21     120 deg rotation - cart. axis [1,1,1]        

 cryst.   s(21) = (     0          0          1      )
                  (     1          0          0      )
                  (     0          1          0      )

 cart.    s(21) = (  0.0000000  0.0000000  1.0000000 )
                  (  1.0000000  0.0000000  0.0000000 )
                  (  0.0000000  1.0000000  0.0000000 )


      isym = 22     120 deg rotation - cart. axis [-1,1,-1]      

 cryst.   s(22) = (     0          0         -1      )
                  (     0          1         -1      )
                  (     1          0         -1      )

 cart.    s(22) = (  0.0000000  0.0000000  1.0000000 )
                  ( -1.0000000  0.0000000  0.0000000 )
                  (  0.0000000 -1.0000000  0.0000000 )


      isym = 23     120 deg rotation - cart. axis [1,-1,-1]      

 cryst.   s(23) = (    -1          1          0      )
                  (    -1          0          0      )
                  (    -1          0          1      )

 cart.    s(23) = (  0.0000000  0.0000000 -1.0000000 )
                  ( -1.0000000  0.0000000  0.0000000 )
                  (  0.0000000  1.0000000  0.0000000 )


      isym = 24     120 deg rotation - cart. axis [-1,-1,1]      

 cryst.   s(24) = (     1         -1          0      )
                  (     0         -1          1      )
                  (     0         -1          0      )

 cart.    s(24) = (  0.0000000  0.0000000 -1.0000000 )
                  (  1.0000000  0.0000000  0.0000000 )
                  (  0.0000000 -1.0000000  0.0000000 )


      isym = 25     inversion                                    

 cryst.   s(25) = (    -1          0          0      )    f =( -0.2500000 )
                  (     0         -1          0      )       ( -0.2500000 )
                  (     0          0         -1      )       ( -0.2500000 )

 cart.    s(25) = ( -1.0000000  0.0000000  0.0000000 )    f =( -0.2500000 )
                  (  0.0000000 -1.0000000  0.0000000 )       ( -0.2500000 )
                  (  0.0000000  0.0000000 -1.0000000 )       ( -0.2500000 )


      isym = 26     inv. 180 deg rotation - cart. axis [0,0,1]   

 cryst.   s(26) = (     1          0          0      )    f =( -0.2500000 )
                  (     1          0         -1      )       ( -0.2500000 )
                  (     1         -1          0      )       ( -0.2500000 )

 cart.    s(26) = (  1.0000000  0.0000000  0.0000000 )    f =( -0.2500000 )
                  (  0.0000000  1.0000000  0.0000000 )       ( -0.2500000 )
                  (  0.0000000  0.0000000 -1.0000000 )       ( -0.2500000 )


      isym = 27     inv. 180 deg rotation - cart. axis [0,1,0]   

 cryst.   s(27) = (     0          1         -1      )    f =( -0.2500000 )
                  (     0          1          0      )       ( -0.2500000 )
                  (    -1          1          0      )       ( -0.2500000 )

 cart.    s(27) = (  1.0000000  0.0000000  0.0000000 )    f =( -0.2500000 )
                  (  0.0000000 -1.0000000  0.0000000 )       ( -0.2500000 )
                  (  0.0000000  0.0000000  1.0000000 )       ( -0.2500000 )


      isym = 28     inv. 180 deg rotation - cart. axis [1,0,0]   

 cryst.   s(28) = (     0         -1          1      )    f =( -0.2500000 )
                  (    -1          0          1      )       ( -0.2500000 )
                  (     0          0          1      )       ( -0.2500000 )

 cart.    s(28) = ( -1.0000000  0.0000000  0.0000000 )    f =( -0.2500000 )
                  (  0.0000000  1.0000000  0.0000000 )       ( -0.2500000 )
                  (  0.0000000  0.0000000  1.0000000 )       ( -0.2500000 )


      isym = 29     inv. 180 deg rotation - cart. axis [1,1,0]   

 cryst.   s(29) = (    -1          0          0      )
                  (    -1          1          0      )
                  (    -1          0          1      )

 cart.    s(29) = (  0.0000000 -1.0000000  0.0000000 )
                  ( -1.0000000  0.0000000  0.0000000 )
                  (  0.0000000  0.0000000  1.0000000 )


      isym = 30     inv. 180 deg rotation - cart. axis [1,-1,0]  

 cryst.   s(30) = (     1          0          0      )
                  (     0          0          1      )
                  (     0          1          0      )

 cart.    s(30) = (  0.0000000  1.0000000  0.0000000 )
                  (  1.0000000  0.0000000  0.0000000 )
                  (  0.0000000  0.0000000  1.0000000 )


      isym = 31     inv.  90 deg rotation - cart. axis [0,0,-1]  

 cryst.   s(31) = (     0         -1          1      )
                  (     1         -1          0      )
                  (     0         -1          0      )

 cart.    s(31) = (  0.0000000 -1.0000000  0.0000000 )
                  (  1.0000000  0.0000000  0.0000000 )
                  (  0.0000000  0.0000000 -1.0000000 )


      isym = 32     inv.  90 deg rotation - cart. axis [0,0,1]   

 cryst.   s(32) = (     0          1         -1      )
                  (     0          0         -1      )
                  (     1          0         -1      )

 cart.    s(32) = (  0.0000000  1.0000000  0.0000000 )
                  ( -1.0000000  0.0000000  0.0000000 )
                  (  0.0000000  0.0000000 -1.0000000 )


      isym = 33     inv. 180 deg rotation - cart. axis [1,0,1]   

 cryst.   s(33) = (     1         -1          0      )
                  (     0         -1          0      )
                  (     0         -1          1      )

 cart.    s(33) = (  0.0000000  0.0000000 -1.0000000 )
                  (  0.0000000  1.0000000  0.0000000 )
                  ( -1.0000000  0.0000000  0.0000000 )


      isym = 34     inv. 180 deg rotation - cart. axis [-1,0,1]  

 cryst.   s(34) = (     0          0          1      )
                  (     0          1          0      )
                  (     1          0          0      )

 cart.    s(34) = (  0.0000000  0.0000000  1.0000000 )
                  (  0.0000000  1.0000000  0.0000000 )
                  (  1.0000000  0.0000000  0.0000000 )


      isym = 35     inv.  90 deg rotation - cart. axis [0,1,0]   

 cryst.   s(35) = (    -1          1          0      )
                  (    -1          0          1      )
                  (    -1          0          0      )

 cart.    s(35) = (  0.0000000  0.0000000 -1.0000000 )
                  (  0.0000000 -1.0000000  0.0000000 )
                  (  1.0000000  0.0000000  0.0000000 )


      isym = 36     inv.  90 deg rotation - cart. axis [0,-1,0]  

 cryst.   s(36) = (     0          0         -1      )
                  (     1          0         -1      )
                  (     0          1         -1      )

 cart.    s(36) = (  0.0000000  0.0000000  1.0000000 )
                  (  0.0000000 -1.0000000  0.0000000 )
                  ( -1.0000000  0.0000000  0.0000000 )


      isym = 37     inv. 180 deg rotation - cart. axis [0,1,1]   

 cryst.   s(37) = (     1          0         -1      )
                  (     0          1         -1      )
                  (     0          0         -1      )

 cart.    s(37) = (  1.0000000  0.0000000  0.0000000 )
                  (  0.0000000  0.0000000 -1.0000000 )
                  (  0.0000000 -1.0000000  0.0000000 )


      isym = 38     inv. 180 deg rotation - cart. axis [0,1,-1]  

 cryst.   s(38) = (     0          1          0      )
                  (     1          0          0      )
                  (     0          0          1      )

 cart.    s(38) = (  1.0000000  0.0000000  0.0000000 )
                  (  0.0000000  0.0000000  1.0000000 )
                  (  0.0000000  1.0000000  0.0000000 )


      isym = 39     inv.  90 deg rotation - cart. axis [-1,0,0]  

 cryst.   s(39) = (    -1          0          1      )
                  (    -1          0          0      )
                  (    -1          1          0      )

 cart.    s(39) = ( -1.0000000  0.0000000  0.0000000 )
                  (  0.0000000  0.0000000 -1.0000000 )
                  (  0.0000000  1.0000000  0.0000000 )


      isym = 40     inv.  90 deg rotation - cart. axis [1,0,0]   

 cryst.   s(40) = (     0         -1          0      )
                  (     0         -1          1      )
                  (     1         -1          0      )

 cart.    s(40) = ( -1.0000000  0.0000000  0.0000000 )
                  (  0.0000000  0.0000000  1.0000000 )
                  (  0.0000000 -1.0000000  0.0000000 )


      isym = 41     inv. 120 deg rotation - cart. axis [-1,-1,-1]

 cryst.   s(41) = (     0         -1          0      )    f =( -0.2500000 )
                  (     0          0         -1      )       ( -0.2500000 )
                  (    -1          0          0      )       ( -0.2500000 )

 cart.    s(41) = (  0.0000000 -1.0000000  0.0000000 )    f =( -0.2500000 )
                  (  0.0000000  0.0000000 -1.0000000 )       ( -0.2500000 )
                  ( -1.0000000  0.0000000  0.0000000 )       ( -0.2500000 )


      isym = 42     inv. 120 deg rotation - cart. axis [-1,1,1]  

 cryst.   s(42) = (     0          1          0      )    f =( -0.2500000 )
                  (    -1          1          0      )       ( -0.2500000 )
                  (     0          1         -1      )       ( -0.2500000 )

 cart.    s(42) = (  0.0000000  1.0000000  0.0000000 )    f =( -0.2500000 )
                  (  0.0000000  0.0000000 -1.0000000 )       ( -0.2500000 )
                  (  1.0000000  0.0000000  0.0000000 )       ( -0.2500000 )


      isym = 43     inv. 120 deg rotation - cart. axis [1,1,-1]  

 cryst.   s(43) = (    -1          0          1      )    f =( -0.2500000 )
                  (     0          0          1      )       ( -0.2500000 )
                  (     0         -1          1      )       ( -0.2500000 )

 cart.    s(43) = (  0.0000000 -1.0000000  0.0000000 )    f =( -0.2500000 )
                  (  0.0000000  0.0000000  1.0000000 )       ( -0.2500000 )
                  (  1.0000000  0.0000000  0.0000000 )       ( -0.2500000 )


      isym = 44     inv. 120 deg rotation - cart. axis [1,-1,1]  

 cryst.   s(44) = (     1          0         -1      )    f =( -0.2500000 )
                  (     1         -1          0      )       ( -0.2500000 )
                  (     1          0          0      )       ( -0.2500000 )

 cart.    s(44) = (  0.0000000  1.0000000  0.0000000 )    f =( -0.2500000 )
                  (  0.0000000  0.0000000  1.0000000 )       ( -0.2500000 )
                  ( -1.0000000  0.0000000  0.0000000 )       ( -0.2500000 )


      isym = 45     inv. 120 deg rotation - cart. axis [1,1,1]   

 cryst.   s(45) = (     0          0         -1      )    f =( -0.2500000 )
                  (    -1          0          0      )       ( -0.2500000 )
                  (     0         -1          0      )       ( -0.2500000 )

 cart.    s(45) = (  0.0000000  0.0000000 -1.0000000 )    f =( -0.2500000 )
                  ( -1.0000000  0.0000000  0.0000000 )       ( -0.2500000 )
                  (  0.0000000 -1.0000000  0.0000000 )       ( -0.2500000 )


      isym = 46     inv. 120 deg rotation - cart. axis [-1,1,-1] 

 cryst.   s(46) = (     0          0          1      )    f =( -0.2500000 )
                  (     0         -1          1      )       ( -0.2500000 )
                  (    -1          0          1      )       ( -0.2500000 )

 cart.    s(46) = (  0.0000000  0.0000000 -1.0000000 )    f =( -0.2500000 )
                  (  1.0000000  0.0000000  0.0000000 )       ( -0.2500000 )
                  (  0.0000000  1.0000000  0.0000000 )       ( -0.2500000 )


      isym = 47     inv. 120 deg rotation - cart. axis [1,-1,-1] 

 cryst.   s(47) = (     1         -1          0      )    f =( -0.2500000 )
                  (     1          0          0      )       ( -0.2500000 )
                  (     1          0         -1      )       ( -0.2500000 )

 cart.    s(47) = (  0.0000000  0.0000000  1.0000000 )    f =( -0.2500000 )
                  (  1.0000000  0.0000000  0.0000000 )       ( -0.2500000 )
                  (  0.0000000 -1.0000000  0.0000000 )       ( -0.2500000 )


      isym = 48     inv. 120 deg rotation - cart. axis [-1,-1,1] 

 cryst.   s(48) = (    -1          1          0      )    f =( -0.2500000 )
                  (     0          1         -1      )       ( -0.2500000 )
                  (     0          1          0      )       ( -0.2500000 )

 cart.    s(48) = (  0.0000000  0.0000000  1.0000000 )    f =( -0.2500000 )
                  ( -1.0000000  0.0000000  0.0000000 )       ( -0.2500000 )
                  (  0.0000000  1.0000000  0.0000000 )       ( -0.2500000 )


   Cartesian axes

     site n.     atom                  positions (alat units)
         1           Si  tau(   1) = (   0.0000000   0.0000000   0.0000000  )
         2           Si  tau(   2) = (   0.2500000   0.2500000   0.2500000  )

   Crystallographic axes

     site n.     atom                  positions (cryst. coord.)
         1           Si  tau(   1) = (  0.0000000  0.0000000  0.0000000  )
         2           Si  tau(   2) = (  0.2500000  0.2500000  0.2500000  )

     number of k points=    81  Marzari-Vanderbilt smearing, width (Ry)=  0.0050
                       cart. coord. in units 2pi/alat
        k(    1) = (   0.5000000   0.5000000   0.5000000), wk =   0.0123457
        k(    2) = (   0.4750000   0.4750000   0.4750000), wk =   0.0123457
        k(    3) = (   0.4500000   0.4500000   0.4500000), wk =   0.0123457
        k(    4) = (   0.4250000   0.4250000   0.4250000), wk =   0.0123457
        k(    5) = (   0.4000000   0.4000000   0.4000000), wk =   0.0123457
        k(    6) = (   0.3750000   0.3750000   0.3750000), wk =   0.0123457
        k(    7) = (   0.3500000   0.3500000   0.3500000), wk =   0.0123457
        k(    8) = (   0.3250000   0.3250000   0.3250000), wk =   0.0123457
        k(    9) = (   0.3000000   0.3000000   0.3000000), wk =   0.0123457
        k(   10) = (   0.2750000   0.2750000   0.2750000), wk =   0.0123457
        k(   11) = (   0.2500000   0.2500000   0.2500000), wk =   0.0123457
        k(   12) = (   0.2250000   0.2250000   0.2250000), wk =   0.0123457
        k(   13) = (   0.2000000   0.2000000   0.2000000), wk =   0.0123457
        k(   14) = (   0.1750000   0.1750000   0.1750000), wk =   0.0123457
        k(   15) = (   0.1500000   0.1500000   0.1500000), wk =   0.0123457
        k(   16) = (   0.1250000   0.1250000   0.1250000), wk =   0.0123457
        k(   17) = (   0.1000000   0.1000000   0.1000000), wk =   0.0123457
        k(   18) = (   0.0750000   0.0750000   0.0750000), wk =   0.0123457
        k(   19) = (   0.0500000   0.0500000   0.0500000), wk =   0.0123457
        k(   20) = (   0.0250000   0.0250000   0.0250000), wk =   0.0123457
        k(   21) = (   0.0000000   0.0000000   0.0000000), wk =   0.0123457
        k(   22) = (   0.0000000   0.0500000   0.0000000), wk =   0.0123457
        k(   23) = (   0.0000000   0.1000000   0.0000000), wk =   0.0123457
        k(   24) = (   0.0000000   0.1500000   0.0000000), wk =   0.0123457
        k(   25) = (   0.0000000   0.2000000   0.0000000), wk =   0.0123457
        k(   26) = (   0.0000000   0.2500000   0.0000000), wk =   0.0123457
        k(   27) = (   0.0000000   0.3000000   0.0000000), wk =   0.0123457
        k(   28) = (   0.0000000   0.3500000   0.0000000), wk =   0.0123457
        k(   29) = (   0.0000000   0.4000000   0.0000000), wk =   0.0123457
        k(   30) = (   0.0000000   0.4500000   0.0000000), wk =   0.0123457
        k(   31) = (   0.0000000   0.5000000   0.0000000), wk =   0.0123457
        k(   32) = (   0.0000000   0.5500000   0.0000000), wk =   0.0123457
        k(   33) = (   0.0000000   0.6000000   0.0000000), wk =   0.0123457
        k(   34) = (   0.0000000   0.6500000   0.0000000), wk =   0.0123457
        k(   35) = (   0.0000000   0.7000000   0.0000000), wk =   0.0123457
        k(   36) = (   0.0000000   0.7500000   0.0000000), wk =   0.0123457
        k(   37) = (   0.0000000   0.8000000   0.0000000), wk =   0.0123457
        k(   38) = (   0.0000000   0.8500000   0.0000000), wk =   0.0123457
        k(   39) = (   0.0000000   0.9000000   0.0000000), wk =   0.0123457
        k(   40) = (   0.0000000   0.9500000   0.0000000), wk =   0.0123457
        k(   41) = (   0.0000000   1.0000000   0.0000000), wk =   0.0123457
        k(   42) = (   0.0000000   0.9875000   0.0375000), wk =   0.0123457
        k(   43) = (   0.0000000   0.9750000   0.0750000), wk =   0.0123457
        k(   44) = (   0.0000000   0.9625000   0.1125000), wk =   0.0123457
        k(   45) = (   0.0000000   0.9500000   0.1500000), wk =   0.0123457
        k(   46) = (   0.0000000   0.9375000   0.1875000), wk =   0.0123457
        k(   47) = (   0.0000000   0.9250000   0.2250000), wk =   0.0123457
        k(   48) = (   0.0000000   0.9125000   0.2625000), wk =   0.0123457
        k(   49) = (   0.0000000   0.9000000   0.3000000), wk =   0.0123457
        k(   50) = (  -0.0000000   0.8875000   0.3375000), wk =   0.0123457
        k(   51) = (   0.0000000   0.8750000   0.3750000), wk =   0.0123457
        k(   52) = (   0.0000000   0.8625000   0.4125000), wk =   0.0123457
        k(   53) = (   0.0000000   0.8500000   0.4500000), wk =   0.0123457
        k(   54) = (   0.0000000   0.8375000   0.4875000), wk =   0.0123457
        k(   55) = (   0.0000000   0.8250000   0.5250000), wk =   0.0123457
        k(   56) = (   0.0000000   0.8125000   0.5625000), wk =   0.0123457
        k(   57) = (   0.0000000   0.8000000   0.6000000), wk =   0.0123457
        k(   58) = (   0.0000000   0.7875000   0.6375000), wk =   0.0123457
        k(   59) = (   0.0000000   0.7750000   0.6750000), wk =   0.0123457
        k(   60) = (  -0.0000000   0.7625000   0.7125000), wk =   0.0123457
        k(   61) = (   0.0000000   0.7500000   0.7500000), wk =   0.0123457
        k(   62) = (   0.0000000   0.7125000   0.7125000), wk =   0.0123457
        k(   63) = (   0.0000000   0.6750000   0.6750000), wk =   0.0123457
        k(   64) = (   0.0000000   0.6375000   0.6375000), wk =   0.0123457
        k(   65) = (   0.0000000   0.6000000   0.6000000), wk =   0.0123457
        k(   66) = (   0.0000000   0.5625000   0.5625000), wk =   0.0123457
        k(   67) = (   0.0000000   0.5250000   0.5250000), wk =   0.0123457
        k(   68) = (   0.0000000   0.4875000   0.4875000), wk =   0.0123457
        k(   69) = (   0.0000000   0.4500000   0.4500000), wk =   0.0123457
        k(   70) = (   0.0000000   0.4125000   0.4125000), wk =   0.0123457
        k(   71) = (   0.0000000   0.3750000   0.3750000), wk =   0.0123457
        k(   72) = (   0.0000000   0.3375000   0.3375000), wk =   0.0123457
        k(   73) = (   0.0000000   0.3000000   0.3000000), wk =   0.0123457
        k(   74) = (   0.0000000   0.2625000   0.2625000), wk =   0.0123457
        k(   75) = (   0.0000000   0.2250000   0.2250000), wk =   0.0123457
        k(   76) = (   0.0000000   0.1875000   0.1875000), wk =   0.0123457
        k(   77) = (   0.0000000   0.1500000   0.1500000), wk =   0.0123457
        k(   78) = (   0.0000000   0.1125000   0.1125000), wk =   0.0123457
        k(   79) = (   0.0000000   0.0750000   0.0750000), wk =   0.0123457
        k(   80) = (   0.0000000   0.0375000   0.0375000), wk =   0.0123457
        k(   81) = (   0.0000000   0.0000000   0.0000000), wk =   0.0123457

                       cryst. coord.
        k(    1) = (   0.5000000   0.5000000   0.5000000), wk =   0.0123457
        k(    2) = (   0.4750000   0.4750000   0.4750000), wk =   0.0123457
        k(    3) = (   0.4500000   0.4500000   0.4500000), wk =   0.0123457
        k(    4) = (   0.4250000   0.4250000   0.4250000), wk =   0.0123457
        k(    5) = (   0.4000000   0.4000000   0.4000000), wk =   0.0123457
        k(    6) = (   0.3750000   0.3750000   0.3750000), wk =   0.0123457
        k(    7) = (   0.3500000   0.3500000   0.3500000), wk =   0.0123457
        k(    8) = (   0.3250000   0.3250000   0.3250000), wk =   0.0123457
        k(    9) = (   0.3000000   0.3000000   0.3000000), wk =   0.0123457
        k(   10) = (   0.2750000   0.2750000   0.2750000), wk =   0.0123457
        k(   11) = (   0.2500000   0.2500000   0.2500000), wk =   0.0123457
        k(   12) = (   0.2250000   0.2250000   0.2250000), wk =   0.0123457
        k(   13) = (   0.2000000   0.2000000   0.2000000), wk =   0.0123457
        k(   14) = (   0.1750000   0.1750000   0.1750000), wk =   0.0123457
        k(   15) = (   0.1500000   0.1500000   0.1500000), wk =   0.0123457
        k(   16) = (   0.1250000   0.1250000   0.1250000), wk =   0.0123457
        k(   17) = (   0.1000000   0.1000000   0.1000000), wk =   0.0123457
        k(   18) = (   0.0750000   0.0750000   0.0750000), wk =   0.0123457
        k(   19) = (   0.0500000   0.0500000   0.0500000), wk =   0.0123457
        k(   20) = (   0.0250000   0.0250000   0.0250000), wk =   0.0123457
        k(   21) = (   0.0000000   0.0000000   0.0000000), wk =   0.0123457
        k(   22) = (   0.0250000   0.0000000   0.0250000), wk =   0.0123457
        k(   23) = (   0.0500000   0.0000000   0.0500000), wk =   0.0123457
        k(   24) = (   0.0750000   0.0000000   0.0750000), wk =   0.0123457
        k(   25) = (   0.1000000   0.0000000   0.1000000), wk =   0.0123457
        k(   26) = (   0.1250000   0.0000000   0.1250000), wk =   0.0123457
        k(   27) = (   0.1500000   0.0000000   0.1500000), wk =   0.0123457
        k(   28) = (   0.1750000   0.0000000   0.1750000), wk =   0.0123457
        k(   29) = (   0.2000000   0.0000000   0.2000000), wk =   0.0123457
        k(   30) = (   0.2250000   0.0000000   0.2250000), wk =   0.0123457
        k(   31) = (   0.2500000   0.0000000   0.2500000), wk =   0.0123457
        k(   32) = (   0.2750000   0.0000000   0.2750000), wk =   0.0123457
        k(   33) = (   0.3000000   0.0000000   0.3000000), wk =   0.0123457
        k(   34) = (   0.3250000   0.0000000   0.3250000), wk =   0.0123457
        k(   35) = (   0.3500000   0.0000000   0.3500000), wk =   0.0123457
        k(   36) = (   0.3750000   0.0000000   0.3750000), wk =   0.0123457
        k(   37) = (   0.4000000   0.0000000   0.4000000), wk =   0.0123457
        k(   38) = (   0.4250000   0.0000000   0.4250000), wk =   0.0123457
        k(   39) = (   0.4500000   0.0000000   0.4500000), wk =   0.0123457
        k(   40) = (   0.4750000   0.0000000   0.4750000), wk =   0.0123457
        k(   41) = (   0.5000000   0.0000000   0.5000000), wk =   0.0123457
        k(   42) = (   0.4937500   0.0187500   0.5125000), wk =   0.0123457
        k(   43) = (   0.4875000   0.0375000   0.5250000), wk =   0.0123457
        k(   44) = (   0.4812500   0.0562500   0.5375000), wk =   0.0123457
        k(   45) = (   0.4750000   0.0750000   0.5500000), wk =   0.0123457
        k(   46) = (   0.4687500   0.0937500   0.5625000), wk =   0.0123457
        k(   47) = (   0.4625000   0.1125000   0.5750000), wk =   0.0123457
        k(   48) = (   0.4562500   0.1312500   0.5875000), wk =   0.0123457
        k(   49) = (   0.4500000   0.1500000   0.6000000), wk =   0.0123457
        k(   50) = (   0.4437500   0.1687500   0.6125000), wk =   0.0123457
        k(   51) = (   0.4375000   0.1875000   0.6250000), wk =   0.0123457
        k(   52) = (   0.4312500   0.2062500   0.6375000), wk =   0.0123457
        k(   53) = (   0.4250000   0.2250000   0.6500000), wk =   0.0123457
        k(   54) = (   0.4187500   0.2437500   0.6625000), wk =   0.0123457
        k(   55) = (   0.4125000   0.2625000   0.6750000), wk =   0.0123457
        k(   56) = (   0.4062500   0.2812500   0.6875000), wk =   0.0123457
        k(   57) = (   0.4000000   0.3000000   0.7000000), wk =   0.0123457
        k(   58) = (   0.3937500   0.3187500   0.7125000), wk =   0.0123457
        k(   59) = (   0.3875000   0.3375000   0.7250000), wk =   0.0123457
        k(   60) = (   0.3812500   0.3562500   0.7375000), wk =   0.0123457
        k(   61) = (   0.3750000   0.3750000   0.7500000), wk =   0.0123457
        k(   62) = (   0.3562500   0.3562500   0.7125000), wk =   0.0123457
        k(   63) = (   0.3375000   0.3375000   0.6750000), wk =   0.0123457
        k(   64) = (   0.3187500   0.3187500   0.6375000), wk =   0.0123457
        k(   65) = (   0.3000000   0.3000000   0.6000000), wk =   0.0123457
        k(   66) = (   0.2812500   0.2812500   0.5625000), wk =   0.0123457
        k(   67) = (   0.2625000   0.2625000   0.5250000), wk =   0.0123457
        k(   68) = (   0.2437500   0.2437500   0.4875000), wk =   0.0123457
        k(   69) = (   0.2250000   0.2250000   0.4500000), wk =   0.0123457
        k(   70) = (   0.2062500   0.2062500   0.4125000), wk =   0.0123457
        k(   71) = (   0.1875000   0.1875000   0.3750000), wk =   0.0123457
        k(   72) = (   0.1687500   0.1687500   0.3375000), wk =   0.0123457
        k(   73) = (   0.1500000   0.1500000   0.3000000), wk =   0.0123457
        k(   74) = (   0.1312500   0.1312500   0.2625000), wk =   0.0123457
        k(   75) = (   0.1125000   0.1125000   0.2250000), wk =   0.0123457
        k(   76) = (   0.0937500   0.0937500   0.1875000), wk =   0.0123457
        k(   77) = (   0.0750000   0.0750000   0.1500000), wk =   0.0123457
        k(   78) = (   0.0562500   0.0562500   0.1125000), wk =   0.0123457
        k(   79) = (   0.0375000   0.0375000   0.0750000), wk =   0.0123457
        k(   80) = (   0.0187500   0.0187500   0.0375000), wk =   0.0123457
        k(   81) = (   0.0000000   0.0000000   0.0000000), wk =   0.0123457

     Dense  grid:    12939 G-vectors     FFT dimensions: (  36,  36,  36)

     Dynamical RAM for                 wfc:       0.39 MB

     Dynamical RAM for     wfc (w. buffer):       0.39 MB

     Dynamical RAM for           str. fact:       0.10 MB

     Dynamical RAM for           local pot:       0.00 MB

     Dynamical RAM for          nlocal pot:       0.84 MB

     Dynamical RAM for                qrad:       2.98 MB

     Dynamical RAM for          rho,v,vnew:       3.32 MB

     Dynamical RAM for           G-vectors:       0.42 MB

     Dynamical RAM for          h,s,v(r/c):       0.19 MB

     Dynamical RAM for          <psi|beta>:       0.03 MB

     Dynamical RAM for                 psi:       1.57 MB

     Dynamical RAM for                hpsi:       1.57 MB

     Dynamical RAM for                spsi:       1.57 MB

     Dynamical RAM for      wfcinit/wfcrot:       0.60 MB

     Dynamical RAM for           addusdens:      60.42 MB

     Estimated static dynamical RAM per process >       9.66 MB

     Estimated max dynamical RAM per process >      70.08 MB

     Estimated total dynamical RAM >     140.17 MB

     The potential is recalculated from file :
     ./outputs/si.save/charge-density

     Starting wfcs are   16 randomized atomic wfcs
     Checking if some PAW data can be deallocated... 

     Band Structure Calculation
     Davidson diagonalization with overlap

     Computing kpt #:     1  of    81
     total cpu time spent up to now is        2.2 secs

     Computing kpt #:     2  of    81
     total cpu time spent up to now is        2.6 secs

     Computing kpt #:     3  of    81
     total cpu time spent up to now is        3.1 secs

     Computing kpt #:     4  of    81
     total cpu time spent up to now is        3.5 secs

     Computing kpt #:     5  of    81
     total cpu time spent up to now is        4.0 secs

     Computing kpt #:     6  of    81
     total cpu time spent up to now is        4.5 secs

     Computing kpt #:     7  of    81
     total cpu time spent up to now is        5.0 secs

     Computing kpt #:     8  of    81
     total cpu time spent up to now is        5.6 secs

     Computing kpt #:     9  of    81
     total cpu time spent up to now is        6.4 secs

     Computing kpt #:    10  of    81
     total cpu time spent up to now is        6.9 secs

     Computing kpt #:    11  of    81
     total cpu time spent up to now is        7.4 secs

     Computing kpt #:    12  of    81
     total cpu time spent up to now is        7.9 secs

     Computing kpt #:    13  of    81
     total cpu time spent up to now is        8.3 secs

     Computing kpt #:    14  of    81
     total cpu time spent up to now is        8.7 secs

     Computing kpt #:    15  of    81
     total cpu time spent up to now is        9.2 secs

     Computing kpt #:    16  of    81
     total cpu time spent up to now is        9.6 secs

     Computing kpt #:    17  of    81
     total cpu time spent up to now is       10.0 secs

     Computing kpt #:    18  of    81
     total cpu time spent up to now is       10.3 secs

     Computing kpt #:    19  of    81
     total cpu time spent up to now is       10.7 secs

     Computing kpt #:    20  of    81
     total cpu time spent up to now is       11.1 secs

     Computing kpt #:    21  of    81
     total cpu time spent up to now is       11.5 secs

     Computing kpt #:    22  of    81
     total cpu time spent up to now is       11.8 secs

     Computing kpt #:    23  of    81
     total cpu time spent up to now is       12.2 secs

     Computing kpt #:    24  of    81
     total cpu time spent up to now is       12.7 secs

     Computing kpt #:    25  of    81
     total cpu time spent up to now is       13.1 secs

     Computing kpt #:    26  of    81
     total cpu time spent up to now is       13.5 secs

     Computing kpt #:    27  of    81
     total cpu time spent up to now is       14.0 secs

     Computing kpt #:    28  of    81
     total cpu time spent up to now is       14.4 secs

     Computing kpt #:    29  of    81
     total cpu time spent up to now is       14.8 secs

     Computing kpt #:    30  of    81
     total cpu time spent up to now is       15.3 secs

     Computing kpt #:    31  of    81
     total cpu time spent up to now is       15.7 secs

     Computing kpt #:    32  of    81
     total cpu time spent up to now is       16.2 secs

     Computing kpt #:    33  of    81
     total cpu time spent up to now is       16.6 secs

     Computing kpt #:    34  of    81
     total cpu time spent up to now is       17.0 secs

     Computing kpt #:    35  of    81
     total cpu time spent up to now is       17.4 secs

     Computing kpt #:    36  of    81
     total cpu time spent up to now is       17.8 secs

     Computing kpt #:    37  of    81
     total cpu time spent up to now is       18.3 secs

     Computing kpt #:    38  of    81
     total cpu time spent up to now is        3.3 secs

     Computing kpt #:    39  of    81
     total cpu time spent up to now is        3.7 secs

     Computing kpt #:    40  of    81
     total cpu time spent up to now is        4.3 secs

     Computing kpt #:    41  of    81
     total cpu time spent up to now is        4.8 secs

     Computing kpt #:    42  of    81
     total cpu time spent up to now is        5.3 secs

     Computing kpt #:    43  of    81
     total cpu time spent up to now is        5.9 secs

     Computing kpt #:    44  of    81
     total cpu time spent up to now is        6.5 secs

     Computing kpt #:    45  of    81
     total cpu time spent up to now is        7.0 secs

     Computing kpt #:    46  of    81
     total cpu time spent up to now is        7.7 secs

     Computing kpt #:    47  of    81
     total cpu time spent up to now is        8.3 secs

     Computing kpt #:    48  of    81
     total cpu time spent up to now is        8.9 secs

     Computing kpt #:    49  of    81
     total cpu time spent up to now is        9.8 secs

     Computing kpt #:    50  of    81
     total cpu time spent up to now is       10.6 secs

     Computing kpt #:    51  of    81
     total cpu time spent up to now is       11.1 secs

     Computing kpt #:    52  of    81
     total cpu time spent up to now is       11.6 secs

     Computing kpt #:    53  of    81
     total cpu time spent up to now is       12.4 secs

     Computing kpt #:    54  of    81
     total cpu time spent up to now is       13.1 secs

     Computing kpt #:    55  of    81
     total cpu time spent up to now is       13.7 secs

     Computing kpt #:    56  of    81
     total cpu time spent up to now is       14.3 secs

     Computing kpt #:    57  of    81
     total cpu time spent up to now is       14.8 secs

     Computing kpt #:    58  of    81
     total cpu time spent up to now is       15.4 secs

     Computing kpt #:    59  of    81
     total cpu time spent up to now is       15.9 secs

     Computing kpt #:    60  of    81
     total cpu time spent up to now is       16.6 secs

     Computing kpt #:    61  of    81
     total cpu time spent up to now is       17.2 secs

     Computing kpt #:    62  of    81
     total cpu time spent up to now is       17.8 secs

     Computing kpt #:    63  of    81
     total cpu time spent up to now is       18.6 secs

     Computing kpt #:    64  of    81
     total cpu time spent up to now is       19.1 secs

     Computing kpt #:    65  of    81
     total cpu time spent up to now is       19.7 secs

     Computing kpt #:    66  of    81
     total cpu time spent up to now is       20.2 secs

     Computing kpt #:    67  of    81
     total cpu time spent up to now is       20.8 secs

     Computing kpt #:    68  of    81
     total cpu time spent up to now is       21.4 secs

     Computing kpt #:    69  of    81
     total cpu time spent up to now is       21.9 secs

     Computing kpt #:    70  of    81
     total cpu time spent up to now is       22.5 secs

     Computing kpt #:    71  of    81
     total cpu time spent up to now is       23.0 secs

     Computing kpt #:    72  of    81
     total cpu time spent up to now is        6.6 secs

     Computing kpt #:    73  of    81
     total cpu time spent up to now is        7.1 secs

     Computing kpt #:    74  of    81
     total cpu time spent up to now is        7.8 secs

     Computing kpt #:    75  of    81
     total cpu time spent up to now is        8.2 secs

     Computing kpt #:    76  of    81
     total cpu time spent up to now is        8.8 secs

     Computing kpt #:    77  of    81
     total cpu time spent up to now is        9.3 secs

     Computing kpt #:    78  of    81
     total cpu time spent up to now is        9.8 secs

     Computing kpt #:    79  of    81
     total cpu time spent up to now is       10.3 secs

     Computing kpt #:    80  of    81
     total cpu time spent up to now is       10.8 secs

     Computing kpt #:    81  of    81
     total cpu time spent up to now is       11.2 secs

     ethr =  1.25E-10,  avg # of iterations = 19.1

     total cpu time spent up to now is       11.2 secs

     End of band structure calculation

          k = 0.5000 0.5000 0.5000 (  1622 PWs)   bands (ev):

    -3.4265  -3.4265  -0.7659  -0.7659   4.9909   4.9909   5.0227   5.0227
     7.7415   7.7415   9.5382   9.5382   9.5526   9.5526  13.9400  13.9400

          k = 0.4750 0.4750 0.4750 (  1610 PWs)   bands (ev):

    -3.4619  -3.4619  -0.7150  -0.7150   4.9954   4.9954   5.0272   5.0272
     7.7467   7.7467   9.5433   9.5433   9.5578   9.5578  13.9480  13.9480

          k = 0.4500 0.4500 0.4500 (  1610 PWs)   bands (ev):

    -3.5607  -3.5607  -0.5699  -0.5699   5.0089   5.0089   5.0407   5.0407
     7.7622   7.7622   9.5585   9.5585   9.5732   9.5732  13.9714  13.9714

          k = 0.4250 0.4250 0.4250 (  1616 PWs)   bands (ev):

    -3.7053  -3.7053  -0.3481  -0.3481   5.0313   5.0313   5.0631   5.0631
     7.7879   7.7879   9.5826   9.5826   9.5976   9.5976  14.0079  14.0079

          k = 0.4000 0.4000 0.4000 (  1616 PWs)   bands (ev):

    -3.8779  -3.8779  -0.0678  -0.0678   5.0627   5.0627   5.0944   5.0944
     7.8237   7.8237   9.6135   9.6135   9.6290   9.6290  14.0523  14.0523

          k = 0.3750 0.3750 0.3750 (  1610 PWs)   bands (ev):

    -4.0643  -4.0643   0.2566   0.2566   5.1029   5.1029   5.1346   5.1346
     7.8695   7.8695   9.6483   9.6483   9.6645   9.6645  14.0938  14.0938

          k = 0.3500 0.3500 0.3500 (  1610 PWs)   bands (ev):

    -4.2549  -4.2549   0.6152   0.6152   5.1519   5.1519   5.1835   5.1835
     7.9249   7.9249   9.6829   9.6829   9.6999   9.6999  14.1077  14.1077

          k = 0.3250 0.3250 0.3250 (  1615 PWs)   bands (ev):

    -4.4431  -4.4431   1.0009   1.0009   5.2095   5.2095   5.2410   5.2410
     7.9897   7.9897   9.7121   9.7121   9.7301   9.7301  14.0428  14.0428

          k = 0.3000 0.3000 0.3000 (  1615 PWs)   bands (ev):

    -4.6248  -4.6248   1.4088   1.4088   5.2754   5.2754   5.3068   5.3068
     8.0631   8.0631   9.7293   9.7293   9.7484   9.7484  13.8027  13.8027

          k = 0.2750 0.2750 0.2750 (  1624 PWs)   bands (ev):

    -4.7971  -4.7971   1.8352   1.8352   5.3492   5.3492   5.3806   5.3806
     8.1445   8.1445   9.7274   9.7274   9.7477   9.7477  13.5175  13.5175

          k = 0.2500 0.2500 0.2500 (  1618 PWs)   bands (ev):

    -4.9579  -4.9579   2.2771   2.2771   5.4303   5.4303   5.4616   5.4616
     8.2329   8.2329   9.7001   9.7001   9.7216   9.7216  13.1241  13.1241

          k = 0.2250 0.2250 0.2250 (  1612 PWs)   bands (ev):

    -5.1060  -5.1060   2.7316   2.7316   5.5179   5.5179   5.5492   5.5492
     8.3268   8.3268   9.6433   9.6433   9.6658   9.6658  12.6982  12.6982

          k = 0.2000 0.2000 0.2000 (  1606 PWs)   bands (ev):

    -5.2402  -5.2402   3.1958   3.1958   5.6108   5.6108   5.6420   5.6420
     8.4243   8.4243   9.5568   9.5568   9.5800   9.5800  12.2565  12.2565

          k = 0.1750 0.1750 0.1750 (  1600 PWs)   bands (ev):

    -5.3598  -5.3598   3.6662   3.6662   5.7073   5.7073   5.7386   5.7386
     8.5227   8.5227   9.4452   9.4452   9.4688   9.4688  11.8074  11.8074

          k = 0.1500 0.1500 0.1500 (  1600 PWs)   bands (ev):

    -5.4644  -5.4644   4.1384   4.1384   5.8052   5.8052   5.8365   5.8365
     8.6183   8.6183   9.3164   9.3164   9.3402   9.3402  11.3575  11.3575

          k = 0.1250 0.1250 0.1250 (  1606 PWs)   bands (ev):

    -5.5534  -5.5534   4.6061   4.6061   5.9015   5.9015   5.9328   5.9328
     8.7059   8.7059   9.1806   9.1806   9.2043   9.2043  10.9145  10.9145

          k = 0.1000 0.1000 0.1000 (  1606 PWs)   bands (ev):

    -5.6266  -5.6266   5.0595   5.0595   5.9921   5.9921   6.0235   6.0235
     8.7777   8.7777   9.0486   9.0486   9.0720   9.0720  10.4913  10.4913

          k = 0.0750 0.0750 0.0750 (  1618 PWs)   bands (ev):

    -5.6837  -5.6837   5.4825   5.4825   6.0723   6.0723   6.1035   6.1035
     8.8217   8.8217   8.9318   8.9318   8.9539   8.9539  10.1102  10.1102

          k = 0.0500 0.0500 0.0500 (  1630 PWs)   bands (ev):

    -5.7247  -5.7247   5.8468   5.8468   6.1365   6.1365   6.1670   6.1670
     8.8170   8.8170   8.8473   8.8473   8.8604   8.8604   9.8078   9.8078

          k = 0.0250 0.0250 0.0250 (  1639 PWs)   bands (ev):

    -5.7493  -5.7493   6.1026   6.1026   6.1827   6.1827   6.2081   6.2081
     8.7669   8.7669   8.8000   8.8000   8.8024   8.8024   9.6241   9.6241

          k = 0.0000 0.0000 0.0000 (  1639 PWs)   bands (ev):

    -5.7575  -5.7575   6.1744   6.1744   6.2224   6.2224   6.2224   6.2224
     8.7442   8.7442   8.7792   8.7792   8.7792   8.7792   9.5662   9.5662

          k = 0.0000 0.0500 0.0000 (  1639 PWs)   bands (ev):

    -5.7465  -5.7465   6.1151   6.1151   6.1608   6.1608   6.1748   6.1748
     8.7371   8.7371   8.8203   8.8203   8.8390   8.8390   9.6392   9.6392

          k = 0.0000 0.1000 0.0000 (  1627 PWs)   bands (ev):

    -5.7137  -5.7137   5.9216   5.9216   6.0211   6.0211   6.0442   6.0442
     8.6615   8.6615   8.9887   8.9887   9.0068   9.0068   9.8368   9.8368

          k = 0.0000 0.1500 0.0000 (  1611 PWs)   bands (ev):

    -5.6591  -5.6591   5.6247   5.6247   5.8352   5.8352   5.8575   5.8575
     8.5413   8.5413   9.2422   9.2422   9.2569   9.2569  10.1097  10.1097

          k = 0.0000 0.2000 0.0000 (  1599 PWs)   bands (ev):

    -5.5827  -5.5827   5.2662   5.2662   5.6197   5.6197   5.6394   5.6394
     8.3892   8.3892   9.5537   9.5537   9.5649   9.5649  10.3940  10.3940

          k = 0.0000 0.2500 0.0000 (  1603 PWs)   bands (ev):

    -5.4846  -5.4846   4.8708   4.8708   5.3905   5.3905   5.4077   5.4077
     8.2167   8.2167   9.9050   9.9050   9.9131   9.9131  10.6006  10.6006

          k = 0.0000 0.3000 0.0000 (  1607 PWs)   bands (ev):

    -5.3650  -5.3650   4.4530   4.4530   5.1584   5.1584   5.1733   5.1733
     8.0337   8.0337  10.2843  10.2843  10.2896  10.2896  10.6186  10.6186

          k = 0.0000 0.3500 0.0000 (  1615 PWs)   bands (ev):

    -5.2241  -5.2241   4.0212   4.0212   4.9305   4.9305   4.9435   4.9435
     7.8484   7.8484  10.4207  10.4207  10.6842  10.6842  10.6875  10.6875

          k = 0.0000 0.4000 0.0000 (  1607 PWs)   bands (ev):

    -5.0621  -5.0621   3.5809   3.5809   4.7114   4.7114   4.7227   4.7227
     7.6672   7.6672  10.0954  10.0954  11.0996  11.0996  11.1007  11.1007

          k = 0.0000 0.4500 0.0000 (  1615 PWs)   bands (ev):

    -4.8792  -4.8792   3.1354   3.1354   4.5042   4.5042   4.5140   4.5140
     7.4951   7.4951   9.7215   9.7215  11.5262  11.5262  11.5271  11.5271

          k = 0.0000 0.5000 0.0000 (  1612 PWs)   bands (ev):

    -4.6757  -4.6757   2.6869   2.6869   4.3110   4.3110   4.3195   4.3195
     7.3359   7.3359   9.3399   9.3399  11.9617  11.9617  11.9642  11.9642

          k = 0.0000 0.5500 0.0000 (  1612 PWs)   bands (ev):

    -4.4520  -4.4520   2.2374   2.2374   4.1333   4.1333   4.1407   4.1407
     7.1926   7.1926   8.9699   8.9699  12.4053  12.4053  12.4092  12.4092

          k = 0.0000 0.6000 0.0000 (  1620 PWs)   bands (ev):

    -4.2084  -4.2084   1.7883   1.7883   3.9722   3.9722   3.9786   3.9786
     7.0676   7.0676   8.6213   8.6213  12.8559  12.8559  12.8611  12.8611

          k = 0.0000 0.6500 0.0000 (  1624 PWs)   bands (ev):

    -3.9454  -3.9454   1.3411   1.3411   3.8287   3.8287   3.8341   3.8341
     6.9631   6.9631   8.2995   8.2995  13.3126  13.3126  13.3189  13.3189

          k = 0.0000 0.7000 0.0000 (  1632 PWs)   bands (ev):

    -3.6635  -3.6635   0.8973   0.8973   3.7033   3.7033   3.7078   3.7078
     6.8804   6.8804   8.0074   8.0074  13.7748  13.7748  13.7820  13.7820

          k = 0.0000 0.7500 0.0000 (  1624 PWs)   bands (ev):

    -3.3633  -3.3633   0.4583   0.4583   3.5965   3.5965   3.6002   3.6002
     6.8212   6.8212   7.7465   7.7465  14.2418  14.2418  14.2498  14.2498

          k = 0.0000 0.8000 0.0000 (  1624 PWs)   bands (ev):

    -3.0455  -3.0455   0.0256   0.0256   3.5088   3.5088   3.5117   3.5117
     6.7866   6.7866   7.5175   7.5175  14.7123  14.7123  14.7209  14.7209

          k = 0.0000 0.8500 0.0000 (  1608 PWs)   bands (ev):

    -2.7107  -2.7107  -0.3993  -0.3993   3.4404   3.4404   3.4425   3.4425
     6.7778   6.7778   7.3203   7.3203  15.1838  15.1838  15.1927  15.1927

          k = 0.0000 0.9000 0.0000 (  1608 PWs)   bands (ev):

    -2.3598  -2.3598  -0.8150  -0.8150   3.3915   3.3915   3.3929   3.3929
     6.7959   6.7959   7.1548   7.1548  15.6483  15.6483  15.6571  15.6571

          k = 0.0000 0.9500 0.0000 (  1604 PWs)   bands (ev):

    -1.9938  -1.9938  -1.2202  -1.2202   3.3622   3.3622   3.3629   3.3629
     6.8417   6.8417   7.0203   7.0203  16.0759  16.0759  16.0833  16.0833

          k = 0.0000 1.0000 0.0000 (  1604 PWs)   bands (ev):

    -1.6135  -1.6135  -1.6135  -1.6135   3.3527   3.3527   3.3527   3.3527
     6.9162   6.9162   6.9162   6.9162  16.3092  16.3092  16.3092  16.3092

          k = 0.0000 0.9875 0.0375 (  1612 PWs)   bands (ev):

    -1.7076  -1.7076  -1.5145  -1.5145   3.3334   3.3334   3.3357   3.3357
     6.9293   6.9293   6.9734   6.9734  16.2170  16.2170  16.2530  16.2530

          k = 0.0000 0.9750 0.0750 (  1618 PWs)   bands (ev):

    -1.7957  -1.7957  -1.4119  -1.4119   3.2789   3.2789   3.2867   3.2867
     7.0116   7.0116   7.0971   7.0971  15.9028  15.9028  16.1223  16.1223

          k = 0.0000 0.9625 0.1125 (  1620 PWs)   bands (ev):

    -1.8770  -1.8770  -1.3074  -1.3074   3.1931   3.1931   3.2151   3.2151
     7.1574   7.1574   7.2800   7.2800  15.4274  15.4274  15.9356  15.9356

          k = 0.0000 0.9500 0.1500 (  1622 PWs)   bands (ev):

    -1.9508  -1.9508  -1.2031  -1.2031   3.0833   3.0833   3.1316   3.1316
     7.3586   7.3586   7.5134   7.5134  14.8783  14.8783  15.6893  15.6893

          k = 0.0000 0.9375 0.1875 (  1616 PWs)   bands (ev):

    -2.0168  -2.0168  -1.1014  -1.1014   2.9579   2.9579   3.0460   3.0460
     7.6065   7.6065   7.7893   7.7893  14.2992  14.2992  15.3872  15.3872

          k = 0.0000 0.9250 0.2250 (  1622 PWs)   bands (ev):

    -2.0745  -2.0745  -1.0052  -1.0052   2.8239   2.8239   2.9676   2.9676
     7.8930   7.8930   8.1006   8.1006  13.7096  13.7096  15.0473  15.0473

          k = 0.0000 0.9125 0.2625 (  1621 PWs)   bands (ev):

    -2.1239  -2.1239  -0.9176  -0.9176   2.6876   2.6876   2.9042   2.9042
     8.2117   8.2117   8.4416   8.4416  13.1197  13.1197  14.6875  14.6875

          k = 0.0000 0.9000 0.3000 (  1623 PWs)   bands (ev):

    -2.1648  -2.1648  -0.8419  -0.8419   2.5535   2.5535   2.8624   2.8624
     8.5571   8.5571   8.8072   8.8072  12.5361  12.5361  14.3198  14.3198

          k =-0.0000 0.8875 0.3375 (  1623 PWs)   bands (ev):

    -2.1972  -2.1972  -0.7809  -0.7809   2.4254   2.4254   2.8471   2.8471
     8.9250   8.9250   9.1924   9.1924  11.9646  11.9646  13.9515  13.9515

          k = 0.0000 0.8750 0.3750 (  1614 PWs)   bands (ev):

    -2.2211  -2.2211  -0.7368  -0.7368   2.3061   2.3061   2.8618   2.8618
     9.3116   9.3116   9.5886   9.5886  11.4143  11.4143  13.5871  13.5871

          k = 0.0000 0.8625 0.4125 (  1616 PWs)   bands (ev):

    -2.2366  -2.2366  -0.7106  -0.7106   2.1977   2.1977   2.9077   2.9077
     9.7134   9.7134   9.9642   9.9642  10.9179  10.9179  13.2301  13.2301

          k = 0.0000 0.8500 0.4500 (  1612 PWs)   bands (ev):

    -2.2439  -2.2439  -0.7022  -0.7022   2.1019   2.1019   2.9838   2.9838
    10.0674  10.0674  10.1268  10.1268  10.7281  10.7281  12.8842  12.8842

          k = 0.0000 0.8375 0.4875 (  1612 PWs)   bands (ev):

    -2.2431  -2.2431  -0.7102  -0.7102   2.0201   2.0201   3.0869   3.0869
     9.6848   9.6848  10.5444  10.5444  11.0615  11.0615  12.5549  12.5549

          k = 0.0000 0.8250 0.5250 (  1611 PWs)   bands (ev):

    -2.2345  -2.2345  -0.7323  -0.7323   1.9533   1.9533   3.2115   3.2115
     9.2255   9.2255  10.9516  10.9516  11.5114  11.5114  12.2569  12.2569

          k = 0.0000 0.8125 0.5625 (  1612 PWs)   bands (ev):

    -2.2182  -2.2182  -0.7658  -0.7658   1.9024   1.9024   3.3499   3.3499
     8.7808   8.7808  11.2821  11.2821  11.9908  11.9908  12.0554  12.0554

          k = 0.0000 0.8000 0.6000 (  1614 PWs)   bands (ev):

    -2.1944  -2.1944  -0.8081  -0.8081   1.8680   1.8680   3.4917   3.4917
     8.3712   8.3712  11.3202  11.3202  12.1621  12.1621  12.4887  12.4887

          k = 0.0000 0.7875 0.6375 (  1614 PWs)   bands (ev):

    -2.1633  -2.1633  -0.8567  -0.8567   1.8506   1.8506   3.6235   3.6235
     8.0118   8.0118  11.1131  11.1131  12.5293  12.5293  12.9971  12.9971

          k = 0.0000 0.7750 0.6750 (  1621 PWs)   bands (ev):

    -2.1251  -2.1251  -0.9096  -0.9096   1.8506   1.8506   3.7280   3.7280
     7.7195   7.7195  10.8548  10.8548  12.9560  12.9560  13.5130  13.5130

          k =-0.0000 0.7625 0.7125 (  1616 PWs)   bands (ev):

    -2.0797  -2.0797  -0.9655  -0.9655   1.8681   1.8681   3.7858   3.7858
     7.5134   7.5134  10.5921  10.5921  13.3750  13.3750  14.0274  14.0274

          k = 0.0000 0.7500 0.7500 (  1624 PWs)   bands (ev):

    -2.0274  -2.0274  -1.0235  -1.0235   1.9031   1.9031   3.7799   3.7799
     7.4102   7.4102  10.3360  10.3360  13.6733  13.6733  14.2202  14.2202

          k = 0.0000 0.7125 0.7125 (  1624 PWs)   bands (ev):

    -2.2151  -2.2151  -0.8339  -0.8339   1.8088   1.8088   3.9120   3.9120
     7.5633   7.5633  11.0993  11.0993  13.2168  13.2168  13.7596  13.7596

          k = 0.0000 0.6750 0.6750 (  1612 PWs)   bands (ev):

    -2.4396  -2.4396  -0.6184  -0.6184   1.7875   1.7875   4.0589   4.0589
     7.7334   7.7334  11.8540  11.8540  12.7770  12.7770  13.3553  13.3553

          k = 0.0000 0.6375 0.6375 (  1608 PWs)   bands (ev):

    -2.6927  -2.6927  -0.3772  -0.3772   1.8338   1.8338   4.2187   4.2187
     7.9182   7.9182  12.3548  12.3548  12.3931  12.3931  13.2092  13.2092

          k = 0.0000 0.6000 0.6000 (  1608 PWs)   bands (ev):

    -2.9645  -2.9645  -0.1104  -0.1104   1.9398   1.9398   4.3895   4.3895
     8.1143   8.1143  11.9553  11.9553  12.2580  12.2580  13.0572  13.0572

          k = 0.0000 0.5625 0.5625 (  1610 PWs)   bands (ev):

    -3.2456  -3.2456   0.1816   0.1816   2.0969   2.0969   4.5687   4.5687
     8.3176   8.3176  11.5762  11.5762  11.9190  11.9190  12.7655  12.7655

          k = 0.0000 0.5250 0.5250 (  1612 PWs)   bands (ev):

    -3.5281  -3.5281   0.4985   0.4985   2.2975   2.2975   4.7533   4.7533
     8.5221   8.5221  11.2194  11.2194  11.5684  11.5684  12.5053  12.5053

          k = 0.0000 0.4875 0.4875 (  1608 PWs)   bands (ev):

    -3.8057  -3.8057   0.8399   0.8399   2.5353   2.5353   4.9398   4.9398
     8.7200   8.7200  10.8856  10.8856  11.2308  11.2308  12.2830  12.2830

          k = 0.0000 0.4500 0.4500 (  1614 PWs)   bands (ev):

    -4.0734  -4.0734   1.2052   1.2052   2.8045   2.8045   5.1243   5.1243
     8.9014   8.9014  10.5752  10.5752  10.9121  10.9121  12.1054  12.1054

          k = 0.0000 0.4125 0.4125 (  1610 PWs)   bands (ev):

    -4.3276  -4.3276   1.5938   1.5938   3.1005   3.1005   5.3028   5.3028
     9.0549   9.0549  10.2886  10.2886  10.6142  10.6142  11.9786  11.9786

          k = 0.0000 0.3750 0.3750 (  1610 PWs)   bands (ev):

    -4.5655  -4.5655   2.0050   2.0050   3.4186   3.4186   5.4710   5.4710
     9.1697   9.1697  10.0261  10.0261  10.3375  10.3375  11.9045  11.9045

          k = 0.0000 0.3375 0.3375 (  1604 PWs)   bands (ev):

    -4.7850  -4.7850   2.4375   2.4375   3.7544   3.7544   5.6249   5.6249
     9.2394   9.2394   9.7881   9.7881  10.0822  10.0822  11.8738  11.8738

          k = 0.0000 0.3000 0.3000 (  1608 PWs)   bands (ev):

    -4.9845  -4.9845   2.8900   2.8900   4.1028   4.1028   5.7616   5.7616
     9.2652   9.2652   9.5747   9.5747   9.8478   9.8478  11.8574  11.8574

          k = 0.0000 0.2625 0.2625 (  1608 PWs)   bands (ev):

    -5.1627  -5.1627   3.3603   3.3603   4.4579   4.4579   5.8788   5.8788
     9.2548   9.2548   9.3864   9.3864   9.6337   9.6337  11.7980  11.7980

          k = 0.0000 0.2250 0.2250 (  1600 PWs)   bands (ev):

    -5.3187  -5.3187   3.8452   3.8452   4.8128   4.8128   5.9760   5.9760
     9.2112   9.2112   9.2308   9.2308   9.4392   9.4392  11.6173  11.6173

          k = 0.0000 0.1875 0.1875 (  1596 PWs)   bands (ev):

    -5.4518  -5.4518   4.3396   4.3396   5.1582   5.1582   6.0535   6.0535
     9.0819   9.0819   9.1701   9.1701   9.2640   9.2640  11.2744  11.2744

          k = 0.0000 0.1500 0.1500 (  1593 PWs)   bands (ev):

    -5.5613  -5.5613   4.8348   4.8348   5.4823   5.4823   6.1129   6.1129
     8.9684   8.9684   9.1022   9.1022   9.1144   9.1144  10.8178  10.8178

          k = 0.0000 0.1125 0.1125 (  1619 PWs)   bands (ev):

    -5.6469  -5.6469   5.3149   5.3149   5.7696   5.7696   6.1563   6.1563
     8.8794   8.8794   8.9729   8.9729   9.0367   9.0367  10.3368  10.3368

          k = 0.0000 0.0750 0.0750 (  1625 PWs)   bands (ev):

    -5.7083  -5.7083   5.7487   5.7487   6.0004   6.0004   6.1861   6.1861
     8.8145   8.8145   8.8665   8.8665   8.9432   8.9432   9.9205   9.9205

          k = 0.0000 0.0375 0.0375 (  1639 PWs)   bands (ev):

    -5.7452  -5.7452   6.0726   6.0726   6.1529   6.1529   6.2067   6.2067
     8.7694   8.7694   8.7993   8.7993   8.8326   8.8326   9.6526   9.6526

          k = 0.0000 0.0000 0.0000 (  1639 PWs)   bands (ev):

    -5.7575  -5.7575   6.1744   6.1744   6.2224   6.2224   6.2224   6.2224
     8.7442   8.7442   8.7792   8.7792   8.7792   8.7792   9.5662   9.5662

     Writing all to output data dir ./outputs/si.save/

     init_run     :      0.99s CPU      1.29s WALL (       1 calls)
     electrons    :     34.32s CPU      9.54s WALL (       1 calls)

     Called by init_run:
     wfcinit      :      0.00s CPU      0.00s WALL (       1 calls)
     wfcinit:atom :      0.02s CPU      0.04s WALL (      81 calls)
     wfcinit:wfcr :      2.02s CPU      3.13s WALL (      81 calls)
     potinit      :      0.26s CPU      0.34s WALL (       1 calls)
     hinit0       :      0.57s CPU      0.73s WALL (       1 calls)

     Called by electrons:
     c_bands      :     34.31s CPU      9.53s WALL (       1 calls)
     v_of_rho     :      0.02s CPU      0.03s WALL (       1 calls)
     v_h          :      0.00s CPU      0.00s WALL (       1 calls)
     v_xc         :      0.02s CPU      0.02s WALL (       1 calls)
     newd         :      0.14s CPU      0.19s WALL (       1 calls)
     PAW_pot      :      0.22s CPU      0.29s WALL (       1 calls)

     Called by c_bands:
     init_us_2    :      0.03s CPU      0.14s WALL (      81 calls)
     init_us_2:cp :      0.03s CPU      0.14s WALL (      81 calls)
     cegterg      :     31.68s CPU      5.09s WALL (     104 calls)

     Called by sum_band:

     Called by *egterg:
     cdiaghg      :      0.91s CPU      1.14s WALL (    1630 calls)
     cegterg:over :      1.93s CPU      2.24s WALL (    1549 calls)
     cegterg:upda :      1.49s CPU      1.72s WALL (    1549 calls)
     cegterg:last :      1.20s CPU      1.37s WALL (     380 calls)
     h_psi        :     25.68s CPU     -1.32s WALL (    1734 calls)
     s_psi        :      1.59s CPU      1.92s WALL (    1734 calls)
     g_psi        :      0.33s CPU      0.39s WALL (    1549 calls)

     Called by h_psi:
     h_psi:calbec :      1.61s CPU      1.91s WALL (    1734 calls)
     vloc_psi     :     22.37s CPU     -5.22s WALL (    1734 calls)
     add_vuspsi   :      1.62s CPU      1.87s WALL (    1734 calls)

     General routines
     calbec       :      1.60s CPU      1.91s WALL (    1734 calls)
     fft          :      0.32s CPU      0.46s WALL (      15 calls)
     fftw         :     19.01s CPU     -9.12s WALL (   72340 calls)
     davcio       :      0.03s CPU      0.05s WALL (     162 calls)

     Parallel routines

     PAW routines
     PAW_pot      :      0.22s CPU      0.29s WALL (       1 calls)

     PWSCF        :     35.77s CPU     11.66s WALL


   This run was terminated on:   6:23: 5  19Dec2024            

=------------------------------------------------------------------------------=
   JOB DONE.
=------------------------------------------------------------------------------=
