
     Program PWSCF v.7.0 starts on 19Dec2024 at  6:10:57 

     This program is part of the open-source Quantum ESPRESSO suite
     for quantum simulation of materials; please cite
         "P. Giannozzi et al., J. Phys.:Condens. Matter 21 395502 (2009);
         "P. Giannozzi et al., J. Phys.:Condens. Matter 29 465901 (2017);
         "P. Giannozzi et al., J. Chem. Phys. 152 154105 (2020);
          URL http://www.quantum-espresso.org", 
     in publications or presentations arising from this work. More details at
     http://www.quantum-espresso.org/quote

     Parallel version (MPI & OpenMP), running on       2 processor cores
     Number of MPI processes:                 2
     Threads/MPI process:                     1

     MPI processes distributed on     1 nodes
     R & G space division:  proc/nbgrp/npool/nimage =       2
     410 MiB available memory on the printing compute node when the environment starts

     Reading input from pw.bands.wo_soc.in

     Current dimensions of program PWSCF are:
     Max number of different atomic species (ntypx) = 10
     Max number of k-points (npk) =  40000
     Max angular momentum in pseudopotentials (lmaxx) =  4
     Message from routine volume:
     axis vectors are left-handed

     Atomic positions and unit cell read from directory:
     ./outputs/si.save/

     Message from routine volume:
     axis vectors are left-handed
     file Si.pbe-n-kjpaw_psl.1.0.0.UPF: wavefunction(s)  3S 3P renormalized

     IMPORTANT: XC functional enforced from input :
     Exchange-correlation= PBE
                           (   1   4   3   4   0   0   0)
     Any further DFT definition will be discarded
     Please, verify this is what you really want

     Message from routine setup:
     using ibrav=0 with symmetry is DISCOURAGED, use correct ibrav instead

     Subspace diagonalization in iterative solution of the eigenvalue problem:
     a serial algorithm will be used


     Parallelization info
     --------------------
     sticks:   dense  smooth     PW     G-vecs:    dense   smooth      PW
     Min         366     366    105                 6469     6469    1042
     Max         367     367    106                 6470     6470    1043
     Sum         733     733    211                12939    12939    2085

     Using Slab Decomposition



     bravais-lattice index     =            0
     lattice parameter (alat)  =      10.2625  a.u.
     unit-cell volume          =     270.2116 (a.u.)^3
     number of atoms/cell      =            2
     number of atomic types    =            1
     number of electrons       =         8.00
     number of Kohn-Sham states=            8
     kinetic-energy cutoff     =      50.0000  Ry
     charge density cutoff     =     200.0000  Ry
     Exchange-correlation= PBE
                           (   1   4   3   4   0   0   0)

     celldm(1)=  10.262536  celldm(2)=   0.000000  celldm(3)=   0.000000
     celldm(4)=   0.000000  celldm(5)=   0.000000  celldm(6)=   0.000000

     crystal axes: (cart. coord. in units of alat)
               a(1) = (   0.500000   0.500000   0.000000 )  
               a(2) = (   0.500000   0.000000   0.500000 )  
               a(3) = (   0.000000   0.500000   0.500000 )  

     reciprocal axes: (cart. coord. in units 2 pi/alat)
               b(1) = (  1.000000  1.000000 -1.000000 )  
               b(2) = (  1.000000 -1.000000  1.000000 )  
               b(3) = ( -1.000000  1.000000  1.000000 )  


     PseudoPot. # 1 for Si read from file:
     ../Pseudopotentials/Si.pbe-n-kjpaw_psl.1.0.0.UPF
     MD5 check sum: c39c59da582df4a0d9f10159256ea34e
     Pseudo is Projector augmented-wave + core cor, Zval =  4.0
     Generated using &quot;atomic&quot; code by A. Dal Corso  v.6.3
     Shape of augmentation charge: PSQ
     Using radial grid of 1141 points,  6 beta functions with: 
                l(1) =   0
                l(2) =   0
                l(3) =   1
                l(4) =   1
                l(5) =   2
                l(6) =   2
     Q(r) pseudized with 0 coefficients 


     atomic species   valence    mass     pseudopotential
        Si             4.00    28.08500     Si( 1.00)

     Starting magnetic structure 
     atomic species   magnetization
        Si           1.000

     48 Sym. Ops., with inversion, found (24 have fractional translation)


                                    s                        frac. trans.

      isym =  1     identity                                     

 cryst.   s( 1) = (     1          0          0      )
                  (     0          1          0      )
                  (     0          0          1      )

 cart.    s( 1) = (  1.0000000  0.0000000  0.0000000 )
                  (  0.0000000  1.0000000  0.0000000 )
                  (  0.0000000  0.0000000  1.0000000 )


      isym =  2     180 deg rotation - cart. axis [0,0,1]        

 cryst.   s( 2) = (    -1          0          0      )
                  (    -1          0          1      )
                  (    -1          1          0      )

 cart.    s( 2) = ( -1.0000000  0.0000000  0.0000000 )
                  (  0.0000000 -1.0000000  0.0000000 )
                  (  0.0000000  0.0000000  1.0000000 )


      isym =  3     180 deg rotation - cart. axis [0,1,0]        

 cryst.   s( 3) = (     0         -1          1      )
                  (     0         -1          0      )
                  (     1         -1          0      )

 cart.    s( 3) = ( -1.0000000  0.0000000  0.0000000 )
                  (  0.0000000  1.0000000  0.0000000 )
                  (  0.0000000  0.0000000 -1.0000000 )


      isym =  4     180 deg rotation - cart. axis [1,0,0]        

 cryst.   s( 4) = (     0          1         -1      )
                  (     1          0         -1      )
                  (     0          0         -1      )

 cart.    s( 4) = (  1.0000000  0.0000000  0.0000000 )
                  (  0.0000000 -1.0000000  0.0000000 )
                  (  0.0000000  0.0000000 -1.0000000 )


      isym =  5     180 deg rotation - cart. axis [1,1,0]        

 cryst.   s( 5) = (     1          0          0      )    f =( -0.2500000 )
                  (     1         -1          0      )       ( -0.2500000 )
                  (     1          0         -1      )       ( -0.2500000 )

 cart.    s( 5) = (  0.0000000  1.0000000  0.0000000 )    f =( -0.2500000 )
                  (  1.0000000  0.0000000  0.0000000 )       ( -0.2500000 )
                  (  0.0000000  0.0000000 -1.0000000 )       ( -0.2500000 )


      isym =  6     180 deg rotation - cart. axis [1,-1,0]       

 cryst.   s( 6) = (    -1          0          0      )    f =( -0.2500000 )
                  (     0          0         -1      )       ( -0.2500000 )
                  (     0         -1          0      )       ( -0.2500000 )

 cart.    s( 6) = (  0.0000000 -1.0000000  0.0000000 )    f =( -0.2500000 )
                  ( -1.0000000  0.0000000  0.0000000 )       ( -0.2500000 )
                  (  0.0000000  0.0000000 -1.0000000 )       ( -0.2500000 )


      isym =  7      90 deg rotation - cart. axis [0,0,-1]       

 cryst.   s( 7) = (     0          1         -1      )    f =( -0.2500000 )
                  (    -1          1          0      )       ( -0.2500000 )
                  (     0          1          0      )       ( -0.2500000 )

 cart.    s( 7) = (  0.0000000  1.0000000  0.0000000 )    f =( -0.2500000 )
                  ( -1.0000000  0.0000000  0.0000000 )       ( -0.2500000 )
                  (  0.0000000  0.0000000  1.0000000 )       ( -0.2500000 )


      isym =  8      90 deg rotation - cart. axis [0,0,1]        

 cryst.   s( 8) = (     0         -1          1      )    f =( -0.2500000 )
                  (     0          0          1      )       ( -0.2500000 )
                  (    -1          0          1      )       ( -0.2500000 )

 cart.    s( 8) = (  0.0000000 -1.0000000  0.0000000 )    f =( -0.2500000 )
                  (  1.0000000  0.0000000  0.0000000 )       ( -0.2500000 )
                  (  0.0000000  0.0000000  1.0000000 )       ( -0.2500000 )


      isym =  9     180 deg rotation - cart. axis [1,0,1]        

 cryst.   s( 9) = (    -1          1          0      )    f =( -0.2500000 )
                  (     0          1          0      )       ( -0.2500000 )
                  (     0          1         -1      )       ( -0.2500000 )

 cart.    s( 9) = (  0.0000000  0.0000000  1.0000000 )    f =( -0.2500000 )
                  (  0.0000000 -1.0000000  0.0000000 )       ( -0.2500000 )
                  (  1.0000000  0.0000000  0.0000000 )       ( -0.2500000 )


      isym = 10     180 deg rotation - cart. axis [-1,0,1]       

 cryst.   s(10) = (     0          0         -1      )    f =( -0.2500000 )
                  (     0         -1          0      )       ( -0.2500000 )
                  (    -1          0          0      )       ( -0.2500000 )

 cart.    s(10) = (  0.0000000  0.0000000 -1.0000000 )    f =( -0.2500000 )
                  (  0.0000000 -1.0000000  0.0000000 )       ( -0.2500000 )
                  ( -1.0000000  0.0000000  0.0000000 )       ( -0.2500000 )


      isym = 11      90 deg rotation - cart. axis [0,1,0]        

 cryst.   s(11) = (     1         -1          0      )    f =( -0.2500000 )
                  (     1          0         -1      )       ( -0.2500000 )
                  (     1          0          0      )       ( -0.2500000 )

 cart.    s(11) = (  0.0000000  0.0000000  1.0000000 )    f =( -0.2500000 )
                  (  0.0000000  1.0000000  0.0000000 )       ( -0.2500000 )
                  ( -1.0000000  0.0000000  0.0000000 )       ( -0.2500000 )


      isym = 12      90 deg rotation - cart. axis [0,-1,0]       

 cryst.   s(12) = (     0          0          1      )    f =( -0.2500000 )
                  (    -1          0          1      )       ( -0.2500000 )
                  (     0         -1          1      )       ( -0.2500000 )

 cart.    s(12) = (  0.0000000  0.0000000 -1.0000000 )    f =( -0.2500000 )
                  (  0.0000000  1.0000000  0.0000000 )       ( -0.2500000 )
                  (  1.0000000  0.0000000  0.0000000 )       ( -0.2500000 )


      isym = 13     180 deg rotation - cart. axis [0,1,1]        

 cryst.   s(13) = (    -1          0          1      )    f =( -0.2500000 )
                  (     0         -1          1      )       ( -0.2500000 )
                  (     0          0          1      )       ( -0.2500000 )

 cart.    s(13) = ( -1.0000000  0.0000000  0.0000000 )    f =( -0.2500000 )
                  (  0.0000000  0.0000000  1.0000000 )       ( -0.2500000 )
                  (  0.0000000  1.0000000  0.0000000 )       ( -0.2500000 )


      isym = 14     180 deg rotation - cart. axis [0,1,-1]       

 cryst.   s(14) = (     0         -1          0      )    f =( -0.2500000 )
                  (    -1          0          0      )       ( -0.2500000 )
                  (     0          0         -1      )       ( -0.2500000 )

 cart.    s(14) = ( -1.0000000  0.0000000  0.0000000 )    f =( -0.2500000 )
                  (  0.0000000  0.0000000 -1.0000000 )       ( -0.2500000 )
                  (  0.0000000 -1.0000000  0.0000000 )       ( -0.2500000 )


      isym = 15      90 deg rotation - cart. axis [-1,0,0]       

 cryst.   s(15) = (     1          0         -1      )    f =( -0.2500000 )
                  (     1          0          0      )       ( -0.2500000 )
                  (     1         -1          0      )       ( -0.2500000 )

 cart.    s(15) = (  1.0000000  0.0000000  0.0000000 )    f =( -0.2500000 )
                  (  0.0000000  0.0000000  1.0000000 )       ( -0.2500000 )
                  (  0.0000000 -1.0000000  0.0000000 )       ( -0.2500000 )


      isym = 16      90 deg rotation - cart. axis [1,0,0]        

 cryst.   s(16) = (     0          1          0      )    f =( -0.2500000 )
                  (     0          1         -1      )       ( -0.2500000 )
                  (    -1          1          0      )       ( -0.2500000 )

 cart.    s(16) = (  1.0000000  0.0000000  0.0000000 )    f =( -0.2500000 )
                  (  0.0000000  0.0000000 -1.0000000 )       ( -0.2500000 )
                  (  0.0000000  1.0000000  0.0000000 )       ( -0.2500000 )


      isym = 17     120 deg rotation - cart. axis [-1,-1,-1]     

 cryst.   s(17) = (     0          1          0      )
                  (     0          0          1      )
                  (     1          0          0      )

 cart.    s(17) = (  0.0000000  1.0000000  0.0000000 )
                  (  0.0000000  0.0000000  1.0000000 )
                  (  1.0000000  0.0000000  0.0000000 )


      isym = 18     120 deg rotation - cart. axis [-1,1,1]       

 cryst.   s(18) = (     0         -1          0      )
                  (     1         -1          0      )
                  (     0         -1          1      )

 cart.    s(18) = (  0.0000000 -1.0000000  0.0000000 )
                  (  0.0000000  0.0000000  1.0000000 )
                  ( -1.0000000  0.0000000  0.0000000 )


      isym = 19     120 deg rotation - cart. axis [1,1,-1]       

 cryst.   s(19) = (     1          0         -1      )
                  (     0          0         -1      )
                  (     0          1         -1      )

 cart.    s(19) = (  0.0000000  1.0000000  0.0000000 )
                  (  0.0000000  0.0000000 -1.0000000 )
                  ( -1.0000000  0.0000000  0.0000000 )


      isym = 20     120 deg rotation - cart. axis [1,-1,1]       

 cryst.   s(20) = (    -1          0          1      )
                  (    -1          1          0      )
                  (    -1          0          0      )

 cart.    s(20) = (  0.0000000 -1.0000000  0.0000000 )
                  (  0.0000000  0.0000000 -1.0000000 )
                  (  1.0000000  0.0000000  0.0000000 )


      isym = 21     120 deg rotation - cart. axis [1,1,1]        

 cryst.   s(21) = (     0          0          1      )
                  (     1          0          0      )
                  (     0          1          0      )

 cart.    s(21) = (  0.0000000  0.0000000  1.0000000 )
                  (  1.0000000  0.0000000  0.0000000 )
                  (  0.0000000  1.0000000  0.0000000 )


      isym = 22     120 deg rotation - cart. axis [-1,1,-1]      

 cryst.   s(22) = (     0          0         -1      )
                  (     0          1         -1      )
                  (     1          0         -1      )

 cart.    s(22) = (  0.0000000  0.0000000  1.0000000 )
                  ( -1.0000000  0.0000000  0.0000000 )
                  (  0.0000000 -1.0000000  0.0000000 )


      isym = 23     120 deg rotation - cart. axis [1,-1,-1]      

 cryst.   s(23) = (    -1          1          0      )
                  (    -1          0          0      )
                  (    -1          0          1      )

 cart.    s(23) = (  0.0000000  0.0000000 -1.0000000 )
                  ( -1.0000000  0.0000000  0.0000000 )
                  (  0.0000000  1.0000000  0.0000000 )


      isym = 24     120 deg rotation - cart. axis [-1,-1,1]      

 cryst.   s(24) = (     1         -1          0      )
                  (     0         -1          1      )
                  (     0         -1          0      )

 cart.    s(24) = (  0.0000000  0.0000000 -1.0000000 )
                  (  1.0000000  0.0000000  0.0000000 )
                  (  0.0000000 -1.0000000  0.0000000 )


      isym = 25     inversion                                    

 cryst.   s(25) = (    -1          0          0      )    f =( -0.2500000 )
                  (     0         -1          0      )       ( -0.2500000 )
                  (     0          0         -1      )       ( -0.2500000 )

 cart.    s(25) = ( -1.0000000  0.0000000  0.0000000 )    f =( -0.2500000 )
                  (  0.0000000 -1.0000000  0.0000000 )       ( -0.2500000 )
                  (  0.0000000  0.0000000 -1.0000000 )       ( -0.2500000 )


      isym = 26     inv. 180 deg rotation - cart. axis [0,0,1]   

 cryst.   s(26) = (     1          0          0      )    f =( -0.2500000 )
                  (     1          0         -1      )       ( -0.2500000 )
                  (     1         -1          0      )       ( -0.2500000 )

 cart.    s(26) = (  1.0000000  0.0000000  0.0000000 )    f =( -0.2500000 )
                  (  0.0000000  1.0000000  0.0000000 )       ( -0.2500000 )
                  (  0.0000000  0.0000000 -1.0000000 )       ( -0.2500000 )


      isym = 27     inv. 180 deg rotation - cart. axis [0,1,0]   

 cryst.   s(27) = (     0          1         -1      )    f =( -0.2500000 )
                  (     0          1          0      )       ( -0.2500000 )
                  (    -1          1          0      )       ( -0.2500000 )

 cart.    s(27) = (  1.0000000  0.0000000  0.0000000 )    f =( -0.2500000 )
                  (  0.0000000 -1.0000000  0.0000000 )       ( -0.2500000 )
                  (  0.0000000  0.0000000  1.0000000 )       ( -0.2500000 )


      isym = 28     inv. 180 deg rotation - cart. axis [1,0,0]   

 cryst.   s(28) = (     0         -1          1      )    f =( -0.2500000 )
                  (    -1          0          1      )       ( -0.2500000 )
                  (     0          0          1      )       ( -0.2500000 )

 cart.    s(28) = ( -1.0000000  0.0000000  0.0000000 )    f =( -0.2500000 )
                  (  0.0000000  1.0000000  0.0000000 )       ( -0.2500000 )
                  (  0.0000000  0.0000000  1.0000000 )       ( -0.2500000 )


      isym = 29     inv. 180 deg rotation - cart. axis [1,1,0]   

 cryst.   s(29) = (    -1          0          0      )
                  (    -1          1          0      )
                  (    -1          0          1      )

 cart.    s(29) = (  0.0000000 -1.0000000  0.0000000 )
                  ( -1.0000000  0.0000000  0.0000000 )
                  (  0.0000000  0.0000000  1.0000000 )


      isym = 30     inv. 180 deg rotation - cart. axis [1,-1,0]  

 cryst.   s(30) = (     1          0          0      )
                  (     0          0          1      )
                  (     0          1          0      )

 cart.    s(30) = (  0.0000000  1.0000000  0.0000000 )
                  (  1.0000000  0.0000000  0.0000000 )
                  (  0.0000000  0.0000000  1.0000000 )


      isym = 31     inv.  90 deg rotation - cart. axis [0,0,-1]  

 cryst.   s(31) = (     0         -1          1      )
                  (     1         -1          0      )
                  (     0         -1          0      )

 cart.    s(31) = (  0.0000000 -1.0000000  0.0000000 )
                  (  1.0000000  0.0000000  0.0000000 )
                  (  0.0000000  0.0000000 -1.0000000 )


      isym = 32     inv.  90 deg rotation - cart. axis [0,0,1]   

 cryst.   s(32) = (     0          1         -1      )
                  (     0          0         -1      )
                  (     1          0         -1      )

 cart.    s(32) = (  0.0000000  1.0000000  0.0000000 )
                  ( -1.0000000  0.0000000  0.0000000 )
                  (  0.0000000  0.0000000 -1.0000000 )


      isym = 33     inv. 180 deg rotation - cart. axis [1,0,1]   

 cryst.   s(33) = (     1         -1          0      )
                  (     0         -1          0      )
                  (     0         -1          1      )

 cart.    s(33) = (  0.0000000  0.0000000 -1.0000000 )
                  (  0.0000000  1.0000000  0.0000000 )
                  ( -1.0000000  0.0000000  0.0000000 )


      isym = 34     inv. 180 deg rotation - cart. axis [-1,0,1]  

 cryst.   s(34) = (     0          0          1      )
                  (     0          1          0      )
                  (     1          0          0      )

 cart.    s(34) = (  0.0000000  0.0000000  1.0000000 )
                  (  0.0000000  1.0000000  0.0000000 )
                  (  1.0000000  0.0000000  0.0000000 )


      isym = 35     inv.  90 deg rotation - cart. axis [0,1,0]   

 cryst.   s(35) = (    -1          1          0      )
                  (    -1          0          1      )
                  (    -1          0          0      )

 cart.    s(35) = (  0.0000000  0.0000000 -1.0000000 )
                  (  0.0000000 -1.0000000  0.0000000 )
                  (  1.0000000  0.0000000  0.0000000 )


      isym = 36     inv.  90 deg rotation - cart. axis [0,-1,0]  

 cryst.   s(36) = (     0          0         -1      )
                  (     1          0         -1      )
                  (     0          1         -1      )

 cart.    s(36) = (  0.0000000  0.0000000  1.0000000 )
                  (  0.0000000 -1.0000000  0.0000000 )
                  ( -1.0000000  0.0000000  0.0000000 )


      isym = 37     inv. 180 deg rotation - cart. axis [0,1,1]   

 cryst.   s(37) = (     1          0         -1      )
                  (     0          1         -1      )
                  (     0          0         -1      )

 cart.    s(37) = (  1.0000000  0.0000000  0.0000000 )
                  (  0.0000000  0.0000000 -1.0000000 )
                  (  0.0000000 -1.0000000  0.0000000 )


      isym = 38     inv. 180 deg rotation - cart. axis [0,1,-1]  

 cryst.   s(38) = (     0          1          0      )
                  (     1          0          0      )
                  (     0          0          1      )

 cart.    s(38) = (  1.0000000  0.0000000  0.0000000 )
                  (  0.0000000  0.0000000  1.0000000 )
                  (  0.0000000  1.0000000  0.0000000 )


      isym = 39     inv.  90 deg rotation - cart. axis [-1,0,0]  

 cryst.   s(39) = (    -1          0          1      )
                  (    -1          0          0      )
                  (    -1          1          0      )

 cart.    s(39) = ( -1.0000000  0.0000000  0.0000000 )
                  (  0.0000000  0.0000000 -1.0000000 )
                  (  0.0000000  1.0000000  0.0000000 )


      isym = 40     inv.  90 deg rotation - cart. axis [1,0,0]   

 cryst.   s(40) = (     0         -1          0      )
                  (     0         -1          1      )
                  (     1         -1          0      )

 cart.    s(40) = ( -1.0000000  0.0000000  0.0000000 )
                  (  0.0000000  0.0000000  1.0000000 )
                  (  0.0000000 -1.0000000  0.0000000 )


      isym = 41     inv. 120 deg rotation - cart. axis [-1,-1,-1]

 cryst.   s(41) = (     0         -1          0      )    f =( -0.2500000 )
                  (     0          0         -1      )       ( -0.2500000 )
                  (    -1          0          0      )       ( -0.2500000 )

 cart.    s(41) = (  0.0000000 -1.0000000  0.0000000 )    f =( -0.2500000 )
                  (  0.0000000  0.0000000 -1.0000000 )       ( -0.2500000 )
                  ( -1.0000000  0.0000000  0.0000000 )       ( -0.2500000 )


      isym = 42     inv. 120 deg rotation - cart. axis [-1,1,1]  

 cryst.   s(42) = (     0          1          0      )    f =( -0.2500000 )
                  (    -1          1          0      )       ( -0.2500000 )
                  (     0          1         -1      )       ( -0.2500000 )

 cart.    s(42) = (  0.0000000  1.0000000  0.0000000 )    f =( -0.2500000 )
                  (  0.0000000  0.0000000 -1.0000000 )       ( -0.2500000 )
                  (  1.0000000  0.0000000  0.0000000 )       ( -0.2500000 )


      isym = 43     inv. 120 deg rotation - cart. axis [1,1,-1]  

 cryst.   s(43) = (    -1          0          1      )    f =( -0.2500000 )
                  (     0          0          1      )       ( -0.2500000 )
                  (     0         -1          1      )       ( -0.2500000 )

 cart.    s(43) = (  0.0000000 -1.0000000  0.0000000 )    f =( -0.2500000 )
                  (  0.0000000  0.0000000  1.0000000 )       ( -0.2500000 )
                  (  1.0000000  0.0000000  0.0000000 )       ( -0.2500000 )


      isym = 44     inv. 120 deg rotation - cart. axis [1,-1,1]  

 cryst.   s(44) = (     1          0         -1      )    f =( -0.2500000 )
                  (     1         -1          0      )       ( -0.2500000 )
                  (     1          0          0      )       ( -0.2500000 )

 cart.    s(44) = (  0.0000000  1.0000000  0.0000000 )    f =( -0.2500000 )
                  (  0.0000000  0.0000000  1.0000000 )       ( -0.2500000 )
                  ( -1.0000000  0.0000000  0.0000000 )       ( -0.2500000 )


      isym = 45     inv. 120 deg rotation - cart. axis [1,1,1]   

 cryst.   s(45) = (     0          0         -1      )    f =( -0.2500000 )
                  (    -1          0          0      )       ( -0.2500000 )
                  (     0         -1          0      )       ( -0.2500000 )

 cart.    s(45) = (  0.0000000  0.0000000 -1.0000000 )    f =( -0.2500000 )
                  ( -1.0000000  0.0000000  0.0000000 )       ( -0.2500000 )
                  (  0.0000000 -1.0000000  0.0000000 )       ( -0.2500000 )


      isym = 46     inv. 120 deg rotation - cart. axis [-1,1,-1] 

 cryst.   s(46) = (     0          0          1      )    f =( -0.2500000 )
                  (     0         -1          1      )       ( -0.2500000 )
                  (    -1          0          1      )       ( -0.2500000 )

 cart.    s(46) = (  0.0000000  0.0000000 -1.0000000 )    f =( -0.2500000 )
                  (  1.0000000  0.0000000  0.0000000 )       ( -0.2500000 )
                  (  0.0000000  1.0000000  0.0000000 )       ( -0.2500000 )


      isym = 47     inv. 120 deg rotation - cart. axis [1,-1,-1] 

 cryst.   s(47) = (     1         -1          0      )    f =( -0.2500000 )
                  (     1          0          0      )       ( -0.2500000 )
                  (     1          0         -1      )       ( -0.2500000 )

 cart.    s(47) = (  0.0000000  0.0000000  1.0000000 )    f =( -0.2500000 )
                  (  1.0000000  0.0000000  0.0000000 )       ( -0.2500000 )
                  (  0.0000000 -1.0000000  0.0000000 )       ( -0.2500000 )


      isym = 48     inv. 120 deg rotation - cart. axis [-1,-1,1] 

 cryst.   s(48) = (    -1          1          0      )    f =( -0.2500000 )
                  (     0          1         -1      )       ( -0.2500000 )
                  (     0          1          0      )       ( -0.2500000 )

 cart.    s(48) = (  0.0000000  0.0000000  1.0000000 )    f =( -0.2500000 )
                  ( -1.0000000  0.0000000  0.0000000 )       ( -0.2500000 )
                  (  0.0000000  1.0000000  0.0000000 )       ( -0.2500000 )


   Cartesian axes

     site n.     atom                  positions (alat units)
         1           Si  tau(   1) = (   0.0000000   0.0000000   0.0000000  )
         2           Si  tau(   2) = (   0.2500000   0.2500000   0.2500000  )

   Crystallographic axes

     site n.     atom                  positions (cryst. coord.)
         1           Si  tau(   1) = (  0.0000000  0.0000000  0.0000000  )
         2           Si  tau(   2) = (  0.2500000  0.2500000  0.2500000  )

     number of k points=    81  Marzari-Vanderbilt smearing, width (Ry)=  0.0050
                       cart. coord. in units 2pi/alat
        k(    1) = (   0.5000000   0.5000000   0.5000000), wk =   0.0123457
        k(    2) = (   0.4750000   0.4750000   0.4750000), wk =   0.0123457
        k(    3) = (   0.4500000   0.4500000   0.4500000), wk =   0.0123457
        k(    4) = (   0.4250000   0.4250000   0.4250000), wk =   0.0123457
        k(    5) = (   0.4000000   0.4000000   0.4000000), wk =   0.0123457
        k(    6) = (   0.3750000   0.3750000   0.3750000), wk =   0.0123457
        k(    7) = (   0.3500000   0.3500000   0.3500000), wk =   0.0123457
        k(    8) = (   0.3250000   0.3250000   0.3250000), wk =   0.0123457
        k(    9) = (   0.3000000   0.3000000   0.3000000), wk =   0.0123457
        k(   10) = (   0.2750000   0.2750000   0.2750000), wk =   0.0123457
        k(   11) = (   0.2500000   0.2500000   0.2500000), wk =   0.0123457
        k(   12) = (   0.2250000   0.2250000   0.2250000), wk =   0.0123457
        k(   13) = (   0.2000000   0.2000000   0.2000000), wk =   0.0123457
        k(   14) = (   0.1750000   0.1750000   0.1750000), wk =   0.0123457
        k(   15) = (   0.1500000   0.1500000   0.1500000), wk =   0.0123457
        k(   16) = (   0.1250000   0.1250000   0.1250000), wk =   0.0123457
        k(   17) = (   0.1000000   0.1000000   0.1000000), wk =   0.0123457
        k(   18) = (   0.0750000   0.0750000   0.0750000), wk =   0.0123457
        k(   19) = (   0.0500000   0.0500000   0.0500000), wk =   0.0123457
        k(   20) = (   0.0250000   0.0250000   0.0250000), wk =   0.0123457
        k(   21) = (   0.0000000   0.0000000   0.0000000), wk =   0.0123457
        k(   22) = (   0.0000000   0.0500000   0.0000000), wk =   0.0123457
        k(   23) = (   0.0000000   0.1000000   0.0000000), wk =   0.0123457
        k(   24) = (   0.0000000   0.1500000   0.0000000), wk =   0.0123457
        k(   25) = (   0.0000000   0.2000000   0.0000000), wk =   0.0123457
        k(   26) = (   0.0000000   0.2500000   0.0000000), wk =   0.0123457
        k(   27) = (   0.0000000   0.3000000   0.0000000), wk =   0.0123457
        k(   28) = (   0.0000000   0.3500000   0.0000000), wk =   0.0123457
        k(   29) = (   0.0000000   0.4000000   0.0000000), wk =   0.0123457
        k(   30) = (   0.0000000   0.4500000   0.0000000), wk =   0.0123457
        k(   31) = (   0.0000000   0.5000000   0.0000000), wk =   0.0123457
        k(   32) = (   0.0000000   0.5500000   0.0000000), wk =   0.0123457
        k(   33) = (   0.0000000   0.6000000   0.0000000), wk =   0.0123457
        k(   34) = (   0.0000000   0.6500000   0.0000000), wk =   0.0123457
        k(   35) = (   0.0000000   0.7000000   0.0000000), wk =   0.0123457
        k(   36) = (   0.0000000   0.7500000   0.0000000), wk =   0.0123457
        k(   37) = (   0.0000000   0.8000000   0.0000000), wk =   0.0123457
        k(   38) = (   0.0000000   0.8500000   0.0000000), wk =   0.0123457
        k(   39) = (   0.0000000   0.9000000   0.0000000), wk =   0.0123457
        k(   40) = (   0.0000000   0.9500000   0.0000000), wk =   0.0123457
        k(   41) = (   0.0000000   1.0000000   0.0000000), wk =   0.0123457
        k(   42) = (   0.0000000   0.9875000   0.0375000), wk =   0.0123457
        k(   43) = (   0.0000000   0.9750000   0.0750000), wk =   0.0123457
        k(   44) = (   0.0000000   0.9625000   0.1125000), wk =   0.0123457
        k(   45) = (   0.0000000   0.9500000   0.1500000), wk =   0.0123457
        k(   46) = (   0.0000000   0.9375000   0.1875000), wk =   0.0123457
        k(   47) = (   0.0000000   0.9250000   0.2250000), wk =   0.0123457
        k(   48) = (   0.0000000   0.9125000   0.2625000), wk =   0.0123457
        k(   49) = (   0.0000000   0.9000000   0.3000000), wk =   0.0123457
        k(   50) = (  -0.0000000   0.8875000   0.3375000), wk =   0.0123457
        k(   51) = (   0.0000000   0.8750000   0.3750000), wk =   0.0123457
        k(   52) = (   0.0000000   0.8625000   0.4125000), wk =   0.0123457
        k(   53) = (   0.0000000   0.8500000   0.4500000), wk =   0.0123457
        k(   54) = (   0.0000000   0.8375000   0.4875000), wk =   0.0123457
        k(   55) = (   0.0000000   0.8250000   0.5250000), wk =   0.0123457
        k(   56) = (   0.0000000   0.8125000   0.5625000), wk =   0.0123457
        k(   57) = (   0.0000000   0.8000000   0.6000000), wk =   0.0123457
        k(   58) = (   0.0000000   0.7875000   0.6375000), wk =   0.0123457
        k(   59) = (   0.0000000   0.7750000   0.6750000), wk =   0.0123457
        k(   60) = (  -0.0000000   0.7625000   0.7125000), wk =   0.0123457
        k(   61) = (   0.0000000   0.7500000   0.7500000), wk =   0.0123457
        k(   62) = (   0.0000000   0.7125000   0.7125000), wk =   0.0123457
        k(   63) = (   0.0000000   0.6750000   0.6750000), wk =   0.0123457
        k(   64) = (   0.0000000   0.6375000   0.6375000), wk =   0.0123457
        k(   65) = (   0.0000000   0.6000000   0.6000000), wk =   0.0123457
        k(   66) = (   0.0000000   0.5625000   0.5625000), wk =   0.0123457
        k(   67) = (   0.0000000   0.5250000   0.5250000), wk =   0.0123457
        k(   68) = (   0.0000000   0.4875000   0.4875000), wk =   0.0123457
        k(   69) = (   0.0000000   0.4500000   0.4500000), wk =   0.0123457
        k(   70) = (   0.0000000   0.4125000   0.4125000), wk =   0.0123457
        k(   71) = (   0.0000000   0.3750000   0.3750000), wk =   0.0123457
        k(   72) = (   0.0000000   0.3375000   0.3375000), wk =   0.0123457
        k(   73) = (   0.0000000   0.3000000   0.3000000), wk =   0.0123457
        k(   74) = (   0.0000000   0.2625000   0.2625000), wk =   0.0123457
        k(   75) = (   0.0000000   0.2250000   0.2250000), wk =   0.0123457
        k(   76) = (   0.0000000   0.1875000   0.1875000), wk =   0.0123457
        k(   77) = (   0.0000000   0.1500000   0.1500000), wk =   0.0123457
        k(   78) = (   0.0000000   0.1125000   0.1125000), wk =   0.0123457
        k(   79) = (   0.0000000   0.0750000   0.0750000), wk =   0.0123457
        k(   80) = (   0.0000000   0.0375000   0.0375000), wk =   0.0123457
        k(   81) = (   0.0000000   0.0000000   0.0000000), wk =   0.0123457

                       cryst. coord.
        k(    1) = (   0.5000000   0.5000000   0.5000000), wk =   0.0123457
        k(    2) = (   0.4750000   0.4750000   0.4750000), wk =   0.0123457
        k(    3) = (   0.4500000   0.4500000   0.4500000), wk =   0.0123457
        k(    4) = (   0.4250000   0.4250000   0.4250000), wk =   0.0123457
        k(    5) = (   0.4000000   0.4000000   0.4000000), wk =   0.0123457
        k(    6) = (   0.3750000   0.3750000   0.3750000), wk =   0.0123457
        k(    7) = (   0.3500000   0.3500000   0.3500000), wk =   0.0123457
        k(    8) = (   0.3250000   0.3250000   0.3250000), wk =   0.0123457
        k(    9) = (   0.3000000   0.3000000   0.3000000), wk =   0.0123457
        k(   10) = (   0.2750000   0.2750000   0.2750000), wk =   0.0123457
        k(   11) = (   0.2500000   0.2500000   0.2500000), wk =   0.0123457
        k(   12) = (   0.2250000   0.2250000   0.2250000), wk =   0.0123457
        k(   13) = (   0.2000000   0.2000000   0.2000000), wk =   0.0123457
        k(   14) = (   0.1750000   0.1750000   0.1750000), wk =   0.0123457
        k(   15) = (   0.1500000   0.1500000   0.1500000), wk =   0.0123457
        k(   16) = (   0.1250000   0.1250000   0.1250000), wk =   0.0123457
        k(   17) = (   0.1000000   0.1000000   0.1000000), wk =   0.0123457
        k(   18) = (   0.0750000   0.0750000   0.0750000), wk =   0.0123457
        k(   19) = (   0.0500000   0.0500000   0.0500000), wk =   0.0123457
        k(   20) = (   0.0250000   0.0250000   0.0250000), wk =   0.0123457
        k(   21) = (   0.0000000   0.0000000   0.0000000), wk =   0.0123457
        k(   22) = (   0.0250000   0.0000000   0.0250000), wk =   0.0123457
        k(   23) = (   0.0500000   0.0000000   0.0500000), wk =   0.0123457
        k(   24) = (   0.0750000   0.0000000   0.0750000), wk =   0.0123457
        k(   25) = (   0.1000000   0.0000000   0.1000000), wk =   0.0123457
        k(   26) = (   0.1250000   0.0000000   0.1250000), wk =   0.0123457
        k(   27) = (   0.1500000   0.0000000   0.1500000), wk =   0.0123457
        k(   28) = (   0.1750000   0.0000000   0.1750000), wk =   0.0123457
        k(   29) = (   0.2000000   0.0000000   0.2000000), wk =   0.0123457
        k(   30) = (   0.2250000   0.0000000   0.2250000), wk =   0.0123457
        k(   31) = (   0.2500000   0.0000000   0.2500000), wk =   0.0123457
        k(   32) = (   0.2750000   0.0000000   0.2750000), wk =   0.0123457
        k(   33) = (   0.3000000   0.0000000   0.3000000), wk =   0.0123457
        k(   34) = (   0.3250000   0.0000000   0.3250000), wk =   0.0123457
        k(   35) = (   0.3500000   0.0000000   0.3500000), wk =   0.0123457
        k(   36) = (   0.3750000   0.0000000   0.3750000), wk =   0.0123457
        k(   37) = (   0.4000000   0.0000000   0.4000000), wk =   0.0123457
        k(   38) = (   0.4250000   0.0000000   0.4250000), wk =   0.0123457
        k(   39) = (   0.4500000   0.0000000   0.4500000), wk =   0.0123457
        k(   40) = (   0.4750000   0.0000000   0.4750000), wk =   0.0123457
        k(   41) = (   0.5000000   0.0000000   0.5000000), wk =   0.0123457
        k(   42) = (   0.4937500   0.0187500   0.5125000), wk =   0.0123457
        k(   43) = (   0.4875000   0.0375000   0.5250000), wk =   0.0123457
        k(   44) = (   0.4812500   0.0562500   0.5375000), wk =   0.0123457
        k(   45) = (   0.4750000   0.0750000   0.5500000), wk =   0.0123457
        k(   46) = (   0.4687500   0.0937500   0.5625000), wk =   0.0123457
        k(   47) = (   0.4625000   0.1125000   0.5750000), wk =   0.0123457
        k(   48) = (   0.4562500   0.1312500   0.5875000), wk =   0.0123457
        k(   49) = (   0.4500000   0.1500000   0.6000000), wk =   0.0123457
        k(   50) = (   0.4437500   0.1687500   0.6125000), wk =   0.0123457
        k(   51) = (   0.4375000   0.1875000   0.6250000), wk =   0.0123457
        k(   52) = (   0.4312500   0.2062500   0.6375000), wk =   0.0123457
        k(   53) = (   0.4250000   0.2250000   0.6500000), wk =   0.0123457
        k(   54) = (   0.4187500   0.2437500   0.6625000), wk =   0.0123457
        k(   55) = (   0.4125000   0.2625000   0.6750000), wk =   0.0123457
        k(   56) = (   0.4062500   0.2812500   0.6875000), wk =   0.0123457
        k(   57) = (   0.4000000   0.3000000   0.7000000), wk =   0.0123457
        k(   58) = (   0.3937500   0.3187500   0.7125000), wk =   0.0123457
        k(   59) = (   0.3875000   0.3375000   0.7250000), wk =   0.0123457
        k(   60) = (   0.3812500   0.3562500   0.7375000), wk =   0.0123457
        k(   61) = (   0.3750000   0.3750000   0.7500000), wk =   0.0123457
        k(   62) = (   0.3562500   0.3562500   0.7125000), wk =   0.0123457
        k(   63) = (   0.3375000   0.3375000   0.6750000), wk =   0.0123457
        k(   64) = (   0.3187500   0.3187500   0.6375000), wk =   0.0123457
        k(   65) = (   0.3000000   0.3000000   0.6000000), wk =   0.0123457
        k(   66) = (   0.2812500   0.2812500   0.5625000), wk =   0.0123457
        k(   67) = (   0.2625000   0.2625000   0.5250000), wk =   0.0123457
        k(   68) = (   0.2437500   0.2437500   0.4875000), wk =   0.0123457
        k(   69) = (   0.2250000   0.2250000   0.4500000), wk =   0.0123457
        k(   70) = (   0.2062500   0.2062500   0.4125000), wk =   0.0123457
        k(   71) = (   0.1875000   0.1875000   0.3750000), wk =   0.0123457
        k(   72) = (   0.1687500   0.1687500   0.3375000), wk =   0.0123457
        k(   73) = (   0.1500000   0.1500000   0.3000000), wk =   0.0123457
        k(   74) = (   0.1312500   0.1312500   0.2625000), wk =   0.0123457
        k(   75) = (   0.1125000   0.1125000   0.2250000), wk =   0.0123457
        k(   76) = (   0.0937500   0.0937500   0.1875000), wk =   0.0123457
        k(   77) = (   0.0750000   0.0750000   0.1500000), wk =   0.0123457
        k(   78) = (   0.0562500   0.0562500   0.1125000), wk =   0.0123457
        k(   79) = (   0.0375000   0.0375000   0.0750000), wk =   0.0123457
        k(   80) = (   0.0187500   0.0187500   0.0375000), wk =   0.0123457
        k(   81) = (   0.0000000   0.0000000   0.0000000), wk =   0.0123457

     Dense  grid:    12939 G-vectors     FFT dimensions: (  36,  36,  36)

     Dynamical RAM for                 wfc:       0.10 MB

     Dynamical RAM for     wfc (w. buffer):       0.10 MB

     Dynamical RAM for           str. fact:       0.10 MB

     Dynamical RAM for           local pot:       0.00 MB

     Dynamical RAM for          nlocal pot:       0.44 MB

     Dynamical RAM for                qrad:       1.14 MB

     Dynamical RAM for          rho,v,vnew:       1.66 MB

     Dynamical RAM for           G-vectors:       0.42 MB

     Dynamical RAM for          h,s,v(r/c):       0.05 MB

     Dynamical RAM for          <psi|beta>:       0.00 MB

     Dynamical RAM for                 psi:       0.39 MB

     Dynamical RAM for                hpsi:       0.39 MB

     Dynamical RAM for                spsi:       0.39 MB

     Dynamical RAM for      wfcinit/wfcrot:       0.20 MB

     Dynamical RAM for           addusdens:      18.66 MB

     Estimated static dynamical RAM per process >       5.12 MB

     Estimated max dynamical RAM per process >      23.78 MB

     Estimated total dynamical RAM >      47.56 MB
     Generating pointlists ...
     new r_m :   0.1786 (alat units)  1.8331 (a.u.) for type    1

     The potential is recalculated from file :
     ./outputs/si.save/charge-density

     Starting wfcs are    8 randomized atomic wfcs
     Checking if some PAW data can be deallocated... 

     Band Structure Calculation
     Davidson diagonalization with overlap

     Computing kpt #:     1  of   162
     total cpu time spent up to now is        1.4 secs

     Computing kpt #:     2  of   162
     total cpu time spent up to now is        1.5 secs

     Computing kpt #:     3  of   162
     total cpu time spent up to now is        1.6 secs

     Computing kpt #:     4  of   162
     total cpu time spent up to now is        1.7 secs

     Computing kpt #:     5  of   162
     total cpu time spent up to now is        1.8 secs

     Computing kpt #:     6  of   162
     total cpu time spent up to now is        1.9 secs

     Computing kpt #:     7  of   162
     total cpu time spent up to now is        2.0 secs

     Computing kpt #:     8  of   162
     total cpu time spent up to now is        2.2 secs

     Computing kpt #:     9  of   162
     total cpu time spent up to now is        2.3 secs

     Computing kpt #:    10  of   162
     total cpu time spent up to now is        2.4 secs

     Computing kpt #:    11  of   162
     total cpu time spent up to now is        2.5 secs

     Computing kpt #:    12  of   162
     total cpu time spent up to now is        2.6 secs

     Computing kpt #:    13  of   162
     total cpu time spent up to now is        2.7 secs

     Computing kpt #:    14  of   162
     total cpu time spent up to now is        2.8 secs

     Computing kpt #:    15  of   162
     total cpu time spent up to now is        2.9 secs

     Computing kpt #:    16  of   162
     total cpu time spent up to now is        3.0 secs

     Computing kpt #:    17  of   162
     total cpu time spent up to now is        3.1 secs

     Computing kpt #:    18  of   162
     total cpu time spent up to now is        3.2 secs

     Computing kpt #:    19  of   162
     total cpu time spent up to now is        3.2 secs

     Computing kpt #:    20  of   162
     total cpu time spent up to now is        3.3 secs

     Computing kpt #:    21  of   162
     total cpu time spent up to now is        3.4 secs

     Computing kpt #:    22  of   162
     total cpu time spent up to now is        3.5 secs

     Computing kpt #:    23  of   162
     total cpu time spent up to now is        3.6 secs

     Computing kpt #:    24  of   162
     total cpu time spent up to now is        3.7 secs

     Computing kpt #:    25  of   162
     total cpu time spent up to now is        3.8 secs

     Computing kpt #:    26  of   162
     total cpu time spent up to now is        3.9 secs

     Computing kpt #:    27  of   162
     total cpu time spent up to now is        3.9 secs

     Computing kpt #:    28  of   162
     total cpu time spent up to now is        4.0 secs

     Computing kpt #:    29  of   162
     total cpu time spent up to now is        4.1 secs

     Computing kpt #:    30  of   162
     total cpu time spent up to now is        4.2 secs

     Computing kpt #:    31  of   162
     total cpu time spent up to now is        4.3 secs

     Computing kpt #:    32  of   162
     total cpu time spent up to now is        4.4 secs

     Computing kpt #:    33  of   162
     total cpu time spent up to now is        4.4 secs

     Computing kpt #:    34  of   162
     total cpu time spent up to now is        4.5 secs

     Computing kpt #:    35  of   162
     total cpu time spent up to now is        4.6 secs

     Computing kpt #:    36  of   162
     total cpu time spent up to now is        4.7 secs

     Computing kpt #:    37  of   162
     total cpu time spent up to now is        4.8 secs

     Computing kpt #:    38  of   162
     total cpu time spent up to now is        4.9 secs

     Computing kpt #:    39  of   162
     total cpu time spent up to now is        5.0 secs

     Computing kpt #:    40  of   162
     total cpu time spent up to now is        5.1 secs

     Computing kpt #:    41  of   162
     total cpu time spent up to now is        5.2 secs

     Computing kpt #:    42  of   162
     total cpu time spent up to now is        5.3 secs

     Computing kpt #:    43  of   162
     total cpu time spent up to now is        5.4 secs

     Computing kpt #:    44  of   162
     total cpu time spent up to now is        5.5 secs

     Computing kpt #:    45  of   162
     total cpu time spent up to now is        5.6 secs

     Computing kpt #:    46  of   162
     total cpu time spent up to now is        5.7 secs

     Computing kpt #:    47  of   162
     total cpu time spent up to now is        5.8 secs

     Computing kpt #:    48  of   162
     total cpu time spent up to now is        5.9 secs

     Computing kpt #:    49  of   162
     total cpu time spent up to now is        6.1 secs

     Computing kpt #:    50  of   162
     total cpu time spent up to now is        6.2 secs

     Computing kpt #:    51  of   162
     total cpu time spent up to now is        6.3 secs

     Computing kpt #:    52  of   162
     total cpu time spent up to now is        6.4 secs

     Computing kpt #:    53  of   162
     total cpu time spent up to now is        6.5 secs

     Computing kpt #:    54  of   162
     total cpu time spent up to now is        6.6 secs

     Computing kpt #:    55  of   162
     total cpu time spent up to now is        6.7 secs

     Computing kpt #:    56  of   162
     total cpu time spent up to now is        6.8 secs

     Computing kpt #:    57  of   162
     total cpu time spent up to now is        6.8 secs

     Computing kpt #:    58  of   162
     total cpu time spent up to now is        6.9 secs

     Computing kpt #:    59  of   162
     total cpu time spent up to now is        7.1 secs

     Computing kpt #:    60  of   162
     total cpu time spent up to now is        7.2 secs

     Computing kpt #:    61  of   162
     total cpu time spent up to now is        7.3 secs

     Computing kpt #:    62  of   162
     total cpu time spent up to now is        7.4 secs

     Computing kpt #:    63  of   162
     total cpu time spent up to now is        7.5 secs

     Computing kpt #:    64  of   162
     total cpu time spent up to now is        7.5 secs

     Computing kpt #:    65  of   162
     total cpu time spent up to now is        7.6 secs

     Computing kpt #:    66  of   162
     total cpu time spent up to now is        7.7 secs

     Computing kpt #:    67  of   162
     total cpu time spent up to now is        7.8 secs

     Computing kpt #:    68  of   162
     total cpu time spent up to now is        7.9 secs

     Computing kpt #:    69  of   162
     total cpu time spent up to now is        8.0 secs

     Computing kpt #:    70  of   162
     total cpu time spent up to now is        8.1 secs

     Computing kpt #:    71  of   162
     total cpu time spent up to now is        8.2 secs

     Computing kpt #:    72  of   162
     total cpu time spent up to now is        8.3 secs

     Computing kpt #:    73  of   162
     total cpu time spent up to now is        8.4 secs

     Computing kpt #:    74  of   162
     total cpu time spent up to now is        8.4 secs

     Computing kpt #:    75  of   162
     total cpu time spent up to now is        8.5 secs

     Computing kpt #:    76  of   162
     total cpu time spent up to now is        8.6 secs

     Computing kpt #:    77  of   162
     total cpu time spent up to now is        8.7 secs

     Computing kpt #:    78  of   162
     total cpu time spent up to now is        8.7 secs

     Computing kpt #:    79  of   162
     total cpu time spent up to now is        8.8 secs

     Computing kpt #:    80  of   162
     total cpu time spent up to now is        8.9 secs

     Computing kpt #:    81  of   162
     total cpu time spent up to now is        8.9 secs

     Computing kpt #:    82  of   162
     total cpu time spent up to now is        9.0 secs

     Computing kpt #:    83  of   162
     total cpu time spent up to now is        9.1 secs

     Computing kpt #:    84  of   162
     total cpu time spent up to now is        9.2 secs

     Computing kpt #:    85  of   162
     total cpu time spent up to now is        9.3 secs

     Computing kpt #:    86  of   162
     total cpu time spent up to now is        9.4 secs

     Computing kpt #:    87  of   162
     total cpu time spent up to now is        9.5 secs

     Computing kpt #:    88  of   162
     total cpu time spent up to now is        9.6 secs

     Computing kpt #:    89  of   162
     total cpu time spent up to now is        9.7 secs

     Computing kpt #:    90  of   162
     total cpu time spent up to now is        9.8 secs

     Computing kpt #:    91  of   162
     total cpu time spent up to now is        9.9 secs

     Computing kpt #:    92  of   162
     total cpu time spent up to now is       10.0 secs

     Computing kpt #:    93  of   162
     total cpu time spent up to now is       10.1 secs

     Computing kpt #:    94  of   162
     total cpu time spent up to now is       10.2 secs

     Computing kpt #:    95  of   162
     total cpu time spent up to now is       10.3 secs

     Computing kpt #:    96  of   162
     total cpu time spent up to now is       10.4 secs

     Computing kpt #:    97  of   162
     total cpu time spent up to now is       10.4 secs

     Computing kpt #:    98  of   162
     total cpu time spent up to now is       10.5 secs

     Computing kpt #:    99  of   162
     total cpu time spent up to now is       10.6 secs

     Computing kpt #:   100  of   162
     total cpu time spent up to now is       10.6 secs

     Computing kpt #:   101  of   162
     total cpu time spent up to now is       10.7 secs

     Computing kpt #:   102  of   162
     total cpu time spent up to now is       10.8 secs

     Computing kpt #:   103  of   162
     total cpu time spent up to now is       10.9 secs

     Computing kpt #:   104  of   162
     total cpu time spent up to now is       10.9 secs

     Computing kpt #:   105  of   162
     total cpu time spent up to now is       11.0 secs

     Computing kpt #:   106  of   162
     total cpu time spent up to now is       11.1 secs

     Computing kpt #:   107  of   162
     total cpu time spent up to now is       11.2 secs

     Computing kpt #:   108  of   162
     total cpu time spent up to now is       11.3 secs

     Computing kpt #:   109  of   162
     total cpu time spent up to now is       11.4 secs

     Computing kpt #:   110  of   162
     total cpu time spent up to now is       11.5 secs

     Computing kpt #:   111  of   162
     total cpu time spent up to now is       11.5 secs

     Computing kpt #:   112  of   162
     total cpu time spent up to now is       11.6 secs

     Computing kpt #:   113  of   162
     total cpu time spent up to now is       11.7 secs

     Computing kpt #:   114  of   162
     total cpu time spent up to now is       11.7 secs

     Computing kpt #:   115  of   162
     total cpu time spent up to now is       11.8 secs

     Computing kpt #:   116  of   162
     total cpu time spent up to now is       11.9 secs

     Computing kpt #:   117  of   162
     total cpu time spent up to now is       12.0 secs

     Computing kpt #:   118  of   162
     total cpu time spent up to now is       12.0 secs

     Computing kpt #:   119  of   162
     total cpu time spent up to now is       12.1 secs

     Computing kpt #:   120  of   162
     total cpu time spent up to now is       12.2 secs

     Computing kpt #:   121  of   162
     total cpu time spent up to now is       12.3 secs

     Computing kpt #:   122  of   162
     total cpu time spent up to now is       12.4 secs

     Computing kpt #:   123  of   162
     total cpu time spent up to now is       12.5 secs

     Computing kpt #:   124  of   162
     total cpu time spent up to now is       12.6 secs

     Computing kpt #:   125  of   162
     total cpu time spent up to now is       12.8 secs

     Computing kpt #:   126  of   162
     total cpu time spent up to now is       12.9 secs

     Computing kpt #:   127  of   162
     total cpu time spent up to now is       13.0 secs

     Computing kpt #:   128  of   162
     total cpu time spent up to now is        0.3 secs

     Computing kpt #:   129  of   162
     total cpu time spent up to now is        0.4 secs

     Computing kpt #:   130  of   162
     total cpu time spent up to now is        0.5 secs

     Computing kpt #:   131  of   162
     total cpu time spent up to now is        0.6 secs

     Computing kpt #:   132  of   162
     total cpu time spent up to now is        0.7 secs

     Computing kpt #:   133  of   162
     total cpu time spent up to now is        0.8 secs

     Computing kpt #:   134  of   162
     total cpu time spent up to now is        0.9 secs

     Computing kpt #:   135  of   162
     total cpu time spent up to now is        0.9 secs

     Computing kpt #:   136  of   162
     total cpu time spent up to now is        1.0 secs

     Computing kpt #:   137  of   162
     total cpu time spent up to now is        1.1 secs

     Computing kpt #:   138  of   162
     total cpu time spent up to now is        1.2 secs

     Computing kpt #:   139  of   162
     total cpu time spent up to now is        1.3 secs

     Computing kpt #:   140  of   162
     total cpu time spent up to now is        1.5 secs

     Computing kpt #:   141  of   162
     total cpu time spent up to now is        1.6 secs

     Computing kpt #:   142  of   162
     total cpu time spent up to now is        1.7 secs

     Computing kpt #:   143  of   162
     total cpu time spent up to now is        1.8 secs

     Computing kpt #:   144  of   162
     total cpu time spent up to now is        1.9 secs

     Computing kpt #:   145  of   162
     total cpu time spent up to now is        2.0 secs

     Computing kpt #:   146  of   162
     total cpu time spent up to now is        2.1 secs

     Computing kpt #:   147  of   162
     total cpu time spent up to now is        2.2 secs

     Computing kpt #:   148  of   162
     total cpu time spent up to now is        2.2 secs

     Computing kpt #:   149  of   162
     total cpu time spent up to now is        2.3 secs

     Computing kpt #:   150  of   162
     total cpu time spent up to now is        2.4 secs

     Computing kpt #:   151  of   162
     total cpu time spent up to now is        2.5 secs

     Computing kpt #:   152  of   162
     total cpu time spent up to now is        2.6 secs

     Computing kpt #:   153  of   162
     total cpu time spent up to now is        2.7 secs

     Computing kpt #:   154  of   162
     total cpu time spent up to now is        2.7 secs

     Computing kpt #:   155  of   162
     total cpu time spent up to now is        2.8 secs

     Computing kpt #:   156  of   162
     total cpu time spent up to now is        2.9 secs

     Computing kpt #:   157  of   162
     total cpu time spent up to now is        3.0 secs

     Computing kpt #:   158  of   162
     total cpu time spent up to now is        3.1 secs

     Computing kpt #:   159  of   162
     total cpu time spent up to now is        3.2 secs

     Computing kpt #:   160  of   162
     total cpu time spent up to now is        3.2 secs

     Computing kpt #:   161  of   162
     total cpu time spent up to now is        3.3 secs

     Computing kpt #:   162  of   162
     total cpu time spent up to now is        3.4 secs

     ethr =  1.25E-10,  avg # of iterations = 18.4

     total cpu time spent up to now is        3.4 secs

     End of band structure calculation

 ------ SPIN UP ------------


          k = 0.5000 0.5000 0.5000 (  1622 PWs)   bands (ev):

    -3.4272  -0.7665   5.0062   5.0062   7.7411   9.5452   9.5452  13.9401

          k = 0.4750 0.4750 0.4750 (  1610 PWs)   bands (ev):

    -3.4626  -0.7156   5.0107   5.0107   7.7463   9.5504   9.5504  13.9481

          k = 0.4500 0.4500 0.4500 (  1610 PWs)   bands (ev):

    -3.5613  -0.5705   5.0241   5.0241   7.7617   9.5657   9.5657  13.9714

          k = 0.4250 0.4250 0.4250 (  1616 PWs)   bands (ev):

    -3.7060  -0.3487   5.0466   5.0466   7.7875   9.5899   9.5899  14.0079

          k = 0.4000 0.4000 0.4000 (  1616 PWs)   bands (ev):

    -3.8786  -0.0684   5.0779   5.0779   7.8233   9.6211   9.6211  14.0523

          k = 0.3750 0.3750 0.3750 (  1610 PWs)   bands (ev):

    -4.0650   0.2561   5.1181   5.1181   7.8691   9.6562   9.6562  14.0937

          k = 0.3500 0.3500 0.3500 (  1610 PWs)   bands (ev):

    -4.2555   0.6146   5.1671   5.1671   7.9245   9.6912   9.6912  14.1075

          k = 0.3250 0.3250 0.3250 (  1615 PWs)   bands (ev):

    -4.4438   1.0003   5.2246   5.2246   7.9892   9.7209   9.7209  14.0427

          k = 0.3000 0.3000 0.3000 (  1615 PWs)   bands (ev):

    -4.6255   1.4082   5.2905   5.2905   8.0627   9.7386   9.7386  13.8057

          k = 0.2750 0.2750 0.2750 (  1624 PWs)   bands (ev):

    -4.7977   1.8346   5.3642   5.3642   8.1441   9.7373   9.7373  13.5170

          k = 0.2500 0.2500 0.2500 (  1618 PWs)   bands (ev):

    -4.9586   2.2765   5.4453   5.4453   8.2325   9.7106   9.7106  13.1235

          k = 0.2250 0.2250 0.2250 (  1612 PWs)   bands (ev):

    -5.1066   2.7310   5.5329   5.5329   8.3264   9.6542   9.6542  12.6975

          k = 0.2000 0.2000 0.2000 (  1606 PWs)   bands (ev):

    -5.2408   3.1952   5.6258   5.6258   8.4239   9.5681   9.5681  12.2558

          k = 0.1750 0.1750 0.1750 (  1600 PWs)   bands (ev):

    -5.3604   3.6657   5.7223   5.7223   8.5223   9.4566   9.4566  11.8068

          k = 0.1500 0.1500 0.1500 (  1600 PWs)   bands (ev):

    -5.4650   4.1379   5.8202   5.8202   8.6180   9.3279   9.3279  11.3568

          k = 0.1250 0.1250 0.1250 (  1606 PWs)   bands (ev):

    -5.5540   4.6057   5.9165   5.9165   8.7057   9.1919   9.1919  10.9138

          k = 0.1000 0.1000 0.1000 (  1606 PWs)   bands (ev):

    -5.6272   5.0592   6.0071   6.0071   8.7778   9.0597   9.0597  10.4906

          k = 0.0750 0.0750 0.0750 (  1618 PWs)   bands (ev):

    -5.6844   5.4825   6.0870   6.0870   8.8228   8.9417   8.9417  10.1094

          k = 0.0500 0.0500 0.0500 (  1630 PWs)   bands (ev):

    -5.7253   5.8476   6.1504   6.1504   8.8270   8.8483   8.8483   9.8071

          k = 0.0250 0.0250 0.0250 (  1639 PWs)   bands (ev):

    -5.7499   6.1084   6.1915   6.1915   8.7880   8.7880   8.7922   9.6233

          k = 0.0000 0.0000 0.0000 (  1639 PWs)   bands (ev):

    -5.7581   6.2058   6.2058   6.2058   8.7671   8.7671   8.7671   9.5654

          k = 0.0000 0.0500 0.0000 (  1639 PWs)   bands (ev):

    -5.7471   6.1313   6.1588   6.1588   8.7400   8.8276   8.8276   9.6384

          k = 0.0000 0.1000 0.0000 (  1627 PWs)   bands (ev):

    -5.7143   5.9254   6.0298   6.0298   8.6619   8.9970   8.9970   9.8360

          k = 0.0000 0.1500 0.0000 (  1611 PWs)   bands (ev):

    -5.6597   5.6258   5.8449   5.8449   8.5412   9.2490   9.2490  10.1089

          k = 0.0000 0.2000 0.0000 (  1599 PWs)   bands (ev):

    -5.5833   5.2664   5.6286   5.6286   8.3890   9.5588   9.5588  10.3932

          k = 0.0000 0.2500 0.0000 (  1603 PWs)   bands (ev):

    -5.4852   4.8706   5.3983   5.3983   8.2164   9.9086   9.9086  10.5999

          k = 0.0000 0.3000 0.0000 (  1607 PWs)   bands (ev):

    -5.3657   4.4526   5.1652   5.1652   8.0334  10.2866  10.2866  10.6179

          k = 0.0000 0.3500 0.0000 (  1615 PWs)   bands (ev):

    -5.2248   4.0208   4.9364   4.9364   7.8482  10.4206  10.6854  10.6854

          k = 0.0000 0.4000 0.0000 (  1607 PWs)   bands (ev):

    -5.0627   3.5804   4.7165   4.7165   7.6670  10.0952  11.0998  11.0998

          k = 0.0000 0.4500 0.0000 (  1615 PWs)   bands (ev):

    -4.8798   3.1348   4.5085   4.5085   7.4948   9.7214  11.5263  11.5263

          k = 0.0000 0.5000 0.0000 (  1612 PWs)   bands (ev):

    -4.6763   2.6863   4.3146   4.3146   7.3356   9.3398  11.9626  11.9626

          k = 0.0000 0.5500 0.0000 (  1612 PWs)   bands (ev):

    -4.4526   2.2367   4.1364   4.1364   7.1923   8.9698  12.4070  12.4070

          k = 0.0000 0.6000 0.0000 (  1620 PWs)   bands (ev):

    -4.2090   1.7876   3.9748   3.9748   7.0674   8.6212  12.8582  12.8582

          k = 0.0000 0.6500 0.0000 (  1624 PWs)   bands (ev):

    -3.9461   1.3404   3.8308   3.8308   6.9628   8.2994  13.3155  13.3155

          k = 0.0000 0.7000 0.0000 (  1632 PWs)   bands (ev):

    -3.6642   0.8966   3.7050   3.7050   6.8802   8.0073  13.7782  13.7782

          k = 0.0000 0.7500 0.0000 (  1624 PWs)   bands (ev):

    -3.3640   0.4576   3.5978   3.5978   6.8210   7.7464  14.2456  14.2456

          k = 0.0000 0.8000 0.0000 (  1624 PWs)   bands (ev):

    -3.0462   0.0249   3.5097   3.5097   6.7864   7.5174  14.7164  14.7164

          k = 0.0000 0.8500 0.0000 (  1608 PWs)   bands (ev):

    -2.7114  -0.4000   3.4409   3.4409   6.7777   7.3202  15.1880  15.1880

          k = 0.0000 0.9000 0.0000 (  1608 PWs)   bands (ev):

    -2.3605  -0.8157   3.3916   3.3916   6.7957   7.1546  15.6525  15.6525

          k = 0.0000 0.9500 0.0000 (  1604 PWs)   bands (ev):

    -1.9944  -1.2209   3.3620   3.3620   6.8415   7.0201  16.0793  16.0793

          k = 0.0000 1.0000 0.0000 (  1604 PWs)   bands (ev):

    -1.6142  -1.6142   3.3521   3.3521   6.9160   6.9160  16.3089  16.3089

          k = 0.0000 0.9875 0.0375 (  1612 PWs)   bands (ev):

    -1.7083  -1.5152   3.3335   3.3344   6.9291   6.9732  16.2169  16.2525

          k = 0.0000 0.9750 0.0750 (  1618 PWs)   bands (ev):

    -1.7964  -1.4126   3.2789   3.2855   7.0114   7.0969  15.9026  16.1218

          k = 0.0000 0.9625 0.1125 (  1620 PWs)   bands (ev):

    -1.8776  -1.3081   3.1929   3.2142   7.1573   7.2798  15.4272  15.9352

          k = 0.0000 0.9500 0.1500 (  1622 PWs)   bands (ev):

    -1.9515  -1.2038   3.0831   3.1307   7.3585   7.5132  14.8782  15.6889

          k = 0.0000 0.9375 0.1875 (  1616 PWs)   bands (ev):

    -2.0175  -1.1021   2.9575   3.0453   7.6063   7.7891  14.2991  15.3869

          k = 0.0000 0.9250 0.2250 (  1622 PWs)   bands (ev):

    -2.0752  -1.0059   2.8236   2.9669   7.8928   8.1004  13.7094  15.0470

          k = 0.0000 0.9125 0.2625 (  1621 PWs)   bands (ev):

    -2.1246  -0.9183   2.6872   2.9036   8.2115   8.4414  13.1195  14.6873

          k = 0.0000 0.9000 0.3000 (  1623 PWs)   bands (ev):

    -2.1655  -0.8426   2.5532   2.8618   8.5570   8.8070  12.5359  14.3197

          k =-0.0000 0.8875 0.3375 (  1623 PWs)   bands (ev):

    -2.1979  -0.7816   2.4250   2.8465   8.9249   9.1922  11.9644  13.9513

          k = 0.0000 0.8750 0.3750 (  1614 PWs)   bands (ev):

    -2.2218  -0.7375   2.3057   2.8612   9.3115   9.5885  11.4140  13.5869

          k = 0.0000 0.8625 0.4125 (  1616 PWs)   bands (ev):

    -2.2373  -0.7113   2.1973   2.9071   9.7133   9.9641  10.9176  13.2300

          k = 0.0000 0.8500 0.4500 (  1612 PWs)   bands (ev):

    -2.2446  -0.7029   2.1015   2.9832  10.0677  10.1264  10.7277  12.8840

          k = 0.0000 0.8375 0.4875 (  1612 PWs)   bands (ev):

    -2.2438  -0.7109   2.0197   3.0863   9.6847  10.5443  11.0613  12.5547

          k = 0.0000 0.8250 0.5250 (  1611 PWs)   bands (ev):

    -2.2352  -0.7330   1.9529   3.2109   9.2253  10.9515  11.5113  12.2566

          k = 0.0000 0.8125 0.5625 (  1612 PWs)   bands (ev):

    -2.2189  -0.7665   1.9020   3.3493   8.7806  11.2821  11.9915  12.0543

          k = 0.0000 0.8000 0.6000 (  1614 PWs)   bands (ev):

    -2.1951  -0.8088   1.8676   3.4912   8.3710  11.3202  12.1618  12.4884

          k = 0.0000 0.7875 0.6375 (  1614 PWs)   bands (ev):

    -2.1640  -0.8574   1.8502   3.6229   8.0116  11.1131  12.5291  12.9969

          k = 0.0000 0.7750 0.6750 (  1621 PWs)   bands (ev):

    -2.1258  -0.9103   1.8502   3.7274   7.7194  10.8548  12.9558  13.5128

          k =-0.0000 0.7625 0.7125 (  1616 PWs)   bands (ev):

    -2.0804  -0.9662   1.8676   3.7852   7.5132  10.5920  13.3748  14.0275

          k = 0.0000 0.7500 0.7500 (  1624 PWs)   bands (ev):

    -2.0281  -1.0242   1.9027   3.7793   7.4101  10.3359  13.6731  14.2206

          k = 0.0000 0.7125 0.7125 (  1624 PWs)   bands (ev):

    -2.2158  -0.8346   1.8084   3.9114   7.5632  11.0992  13.2165  13.7598

          k = 0.0000 0.6750 0.6750 (  1612 PWs)   bands (ev):

    -2.4403  -0.6191   1.7870   4.0583   7.7333  11.8541  12.7767  13.3554

          k = 0.0000 0.6375 0.6375 (  1608 PWs)   bands (ev):

    -2.6934  -0.3779   1.8334   4.2181   7.9180  12.3557  12.3922  13.2097

          k = 0.0000 0.6000 0.6000 (  1608 PWs)   bands (ev):

    -2.9652  -0.1111   1.9393   4.3889   8.1141  11.9551  12.2580  13.0569

          k = 0.0000 0.5625 0.5625 (  1610 PWs)   bands (ev):

    -3.2463   0.1809   2.0964   4.5681   8.3174  11.5760  11.9190  12.7651

          k = 0.0000 0.5250 0.5250 (  1612 PWs)   bands (ev):

    -3.5288   0.4978   2.2971   4.7526   8.5219  11.2192  11.5683  12.5048

          k = 0.0000 0.4875 0.4875 (  1608 PWs)   bands (ev):

    -3.8063   0.8392   2.5348   4.9391   8.7198  10.8853  11.2307  12.2825

          k = 0.0000 0.4500 0.4500 (  1614 PWs)   bands (ev):

    -4.0741   1.2045   2.8041   5.1237   8.9012  10.5748  10.9120  12.1050

          k = 0.0000 0.4125 0.4125 (  1610 PWs)   bands (ev):

    -4.3283   1.5932   3.1000   5.3021   9.0546  10.2882  10.6140  11.9783

          k = 0.0000 0.3750 0.3750 (  1610 PWs)   bands (ev):

    -4.5662   2.0043   3.4182   5.4703   9.1694  10.0257  10.3373  11.9042

          k = 0.0000 0.3375 0.3375 (  1604 PWs)   bands (ev):

    -4.7857   2.4369   3.7539   5.6242   9.2392   9.7877  10.0819  11.8735

          k = 0.0000 0.3000 0.3000 (  1608 PWs)   bands (ev):

    -4.9851   2.8894   4.1023   5.7609   9.2651   9.5742   9.8474  11.8570

          k = 0.0000 0.2625 0.2625 (  1608 PWs)   bands (ev):

    -5.1634   3.3597   4.4575   5.8781   9.2551   9.3855   9.6332  11.7975

          k = 0.0000 0.2250 0.2250 (  1600 PWs)   bands (ev):

    -5.3194   3.8446   4.8124   5.9752   9.2198   9.2218   9.4386  11.6168

          k = 0.0000 0.1875 0.1875 (  1596 PWs)   bands (ev):

    -5.4524   4.3391   5.1578   6.0526   9.0830   9.1688   9.2630  11.2737

          k = 0.0000 0.1500 0.1500 (  1593 PWs)   bands (ev):

    -5.5619   4.8344   5.4820   6.1119   8.9694   9.1068   9.1075  10.8171

          k = 0.0000 0.1125 0.1125 (  1619 PWs)   bands (ev):

    -5.6475   5.3148   5.7693   6.1549   8.8809   8.9721   9.0348  10.3361

          k = 0.0000 0.0750 0.0750 (  1625 PWs)   bands (ev):

    -5.7089   5.7493   6.0003   6.1838   8.8177   8.8643   8.9409   9.9197

          k = 0.0000 0.0375 0.0375 (  1639 PWs)   bands (ev):

    -5.7458   6.0775   6.1524   6.2004   8.7798   8.7926   8.8278   9.6518

          k = 0.0000 0.0000 0.0000 (  1639 PWs)   bands (ev):

    -5.7581   6.2058   6.2058   6.2058   8.7671   8.7671   8.7671   9.5654

 ------ SPIN DOWN ----------


          k = 0.5000 0.5000 0.5000 (  1622 PWs)   bands (ev):

    -3.4272  -0.7665   5.0062   5.0062   7.7411   9.5452   9.5452  13.9401

          k = 0.4750 0.4750 0.4750 (  1610 PWs)   bands (ev):

    -3.4626  -0.7156   5.0107   5.0107   7.7463   9.5505   9.5505  13.9481

          k = 0.4500 0.4500 0.4500 (  1610 PWs)   bands (ev):

    -3.5613  -0.5705   5.0241   5.0241   7.7617   9.5657   9.5657  13.9714

          k = 0.4250 0.4250 0.4250 (  1616 PWs)   bands (ev):

    -3.7060  -0.3487   5.0466   5.0466   7.7875   9.5899   9.5899  14.0079

          k = 0.4000 0.4000 0.4000 (  1616 PWs)   bands (ev):

    -3.8786  -0.0684   5.0779   5.0779   7.8233   9.6211   9.6211  14.0523

          k = 0.3750 0.3750 0.3750 (  1610 PWs)   bands (ev):

    -4.0650   0.2561   5.1181   5.1181   7.8691   9.6562   9.6562  14.0937

          k = 0.3500 0.3500 0.3500 (  1610 PWs)   bands (ev):

    -4.2555   0.6146   5.1671   5.1671   7.9245   9.6913   9.6913  14.1075

          k = 0.3250 0.3250 0.3250 (  1615 PWs)   bands (ev):

    -4.4438   1.0003   5.2246   5.2246   7.9892   9.7209   9.7209  14.0427

          k = 0.3000 0.3000 0.3000 (  1615 PWs)   bands (ev):

    -4.6255   1.4082   5.2905   5.2905   8.0627   9.7386   9.7386  13.8057

          k = 0.2750 0.2750 0.2750 (  1624 PWs)   bands (ev):

    -4.7977   1.8346   5.3642   5.3642   8.1441   9.7373   9.7373  13.5170

          k = 0.2500 0.2500 0.2500 (  1618 PWs)   bands (ev):

    -4.9586   2.2765   5.4453   5.4453   8.2325   9.7106   9.7106  13.1235

          k = 0.2250 0.2250 0.2250 (  1612 PWs)   bands (ev):

    -5.1066   2.7310   5.5329   5.5329   8.3264   9.6542   9.6542  12.6975

          k = 0.2000 0.2000 0.2000 (  1606 PWs)   bands (ev):

    -5.2408   3.1952   5.6258   5.6258   8.4239   9.5681   9.5681  12.2558

          k = 0.1750 0.1750 0.1750 (  1600 PWs)   bands (ev):

    -5.3604   3.6657   5.7223   5.7223   8.5223   9.4566   9.4566  11.8067

          k = 0.1500 0.1500 0.1500 (  1600 PWs)   bands (ev):

    -5.4650   4.1379   5.8202   5.8202   8.6180   9.3279   9.3279  11.3568

          k = 0.1250 0.1250 0.1250 (  1606 PWs)   bands (ev):

    -5.5540   4.6057   5.9165   5.9165   8.7057   9.1919   9.1919  10.9138

          k = 0.1000 0.1000 0.1000 (  1606 PWs)   bands (ev):

    -5.6272   5.0592   6.0071   6.0071   8.7777   9.0597   9.0597  10.4906

          k = 0.0750 0.0750 0.0750 (  1618 PWs)   bands (ev):

    -5.6844   5.4825   6.0870   6.0870   8.8228   8.9417   8.9417  10.1094

          k = 0.0500 0.0500 0.0500 (  1630 PWs)   bands (ev):

    -5.7253   5.8476   6.1504   6.1504   8.8270   8.8483   8.8483   9.8070

          k = 0.0250 0.0250 0.0250 (  1639 PWs)   bands (ev):

    -5.7499   6.1084   6.1915   6.1915   8.7880   8.7880   8.7922   9.6232

          k = 0.0000 0.0000 0.0000 (  1639 PWs)   bands (ev):

    -5.7581   6.2058   6.2058   6.2058   8.7671   8.7671   8.7671   9.5654

          k = 0.0000 0.0500 0.0000 (  1639 PWs)   bands (ev):

    -5.7471   6.1313   6.1588   6.1588   8.7400   8.8276   8.8276   9.6383

          k = 0.0000 0.1000 0.0000 (  1627 PWs)   bands (ev):

    -5.7143   5.9254   6.0298   6.0298   8.6619   8.9970   8.9970   9.8360

          k = 0.0000 0.1500 0.0000 (  1611 PWs)   bands (ev):

    -5.6597   5.6258   5.8449   5.8449   8.5412   9.2490   9.2490  10.1089

          k = 0.0000 0.2000 0.0000 (  1599 PWs)   bands (ev):

    -5.5833   5.2664   5.6286   5.6286   8.3890   9.5588   9.5588  10.3932

          k = 0.0000 0.2500 0.0000 (  1603 PWs)   bands (ev):

    -5.4852   4.8706   5.3983   5.3983   8.2164   9.9086   9.9086  10.5999

          k = 0.0000 0.3000 0.0000 (  1607 PWs)   bands (ev):

    -5.3657   4.4526   5.1652   5.1652   8.0334  10.2866  10.2866  10.6179

          k = 0.0000 0.3500 0.0000 (  1615 PWs)   bands (ev):

    -5.2248   4.0207   4.9364   4.9364   7.8482  10.4206  10.6854  10.6854

          k = 0.0000 0.4000 0.0000 (  1607 PWs)   bands (ev):

    -5.0627   3.5804   4.7165   4.7165   7.6670  10.0952  11.0998  11.0998

          k = 0.0000 0.4500 0.0000 (  1615 PWs)   bands (ev):

    -4.8798   3.1348   4.5085   4.5085   7.4948   9.7214  11.5263  11.5263

          k = 0.0000 0.5000 0.0000 (  1612 PWs)   bands (ev):

    -4.6763   2.6863   4.3146   4.3146   7.3356   9.3398  11.9626  11.9626

          k = 0.0000 0.5500 0.0000 (  1612 PWs)   bands (ev):

    -4.4526   2.2367   4.1364   4.1364   7.1923   8.9698  12.4070  12.4070

          k = 0.0000 0.6000 0.0000 (  1620 PWs)   bands (ev):

    -4.2090   1.7876   3.9748   3.9748   7.0674   8.6212  12.8582  12.8582

          k = 0.0000 0.6500 0.0000 (  1624 PWs)   bands (ev):

    -3.9461   1.3404   3.8308   3.8308   6.9628   8.2994  13.3155  13.3155

          k = 0.0000 0.7000 0.0000 (  1632 PWs)   bands (ev):

    -3.6642   0.8966   3.7050   3.7050   6.8802   8.0073  13.7782  13.7782

          k = 0.0000 0.7500 0.0000 (  1624 PWs)   bands (ev):

    -3.3640   0.4576   3.5978   3.5978   6.8210   7.7464  14.2456  14.2456

          k = 0.0000 0.8000 0.0000 (  1624 PWs)   bands (ev):

    -3.0462   0.0249   3.5097   3.5097   6.7865   7.5174  14.7164  14.7164

          k = 0.0000 0.8500 0.0000 (  1608 PWs)   bands (ev):

    -2.7114  -0.4000   3.4409   3.4409   6.7777   7.3202  15.1880  15.1880

          k = 0.0000 0.9000 0.0000 (  1608 PWs)   bands (ev):

    -2.3605  -0.8158   3.3916   3.3916   6.7957   7.1546  15.6525  15.6525

          k = 0.0000 0.9500 0.0000 (  1604 PWs)   bands (ev):

    -1.9944  -1.2209   3.3620   3.3620   6.8415   7.0202  16.0793  16.0793

          k = 0.0000 1.0000 0.0000 (  1604 PWs)   bands (ev):

    -1.6142  -1.6142   3.3521   3.3521   6.9160   6.9160  16.3089  16.3089

          k = 0.0000 0.9875 0.0375 (  1612 PWs)   bands (ev):

    -1.7083  -1.5152   3.3335   3.3344   6.9291   6.9732  16.2169  16.2525

          k = 0.0000 0.9750 0.0750 (  1618 PWs)   bands (ev):

    -1.7964  -1.4126   3.2789   3.2855   7.0114   7.0969  15.9026  16.1218

          k = 0.0000 0.9625 0.1125 (  1620 PWs)   bands (ev):

    -1.8776  -1.3081   3.1929   3.2142   7.1573   7.2798  15.4272  15.9352

          k = 0.0000 0.9500 0.1500 (  1622 PWs)   bands (ev):

    -1.9515  -1.2038   3.0831   3.1307   7.3585   7.5132  14.8782  15.6889

          k = 0.0000 0.9375 0.1875 (  1616 PWs)   bands (ev):

    -2.0175  -1.1021   2.9576   3.0453   7.6063   7.7891  14.2991  15.3869

          k = 0.0000 0.9250 0.2250 (  1622 PWs)   bands (ev):

    -2.0752  -1.0059   2.8236   2.9669   7.8929   8.1004  13.7094  15.0470

          k = 0.0000 0.9125 0.2625 (  1621 PWs)   bands (ev):

    -2.1246  -0.9184   2.6872   2.9036   8.2115   8.4414  13.1195  14.6873

          k = 0.0000 0.9000 0.3000 (  1623 PWs)   bands (ev):

    -2.1655  -0.8426   2.5532   2.8618   8.5570   8.8070  12.5359  14.3197

          k =-0.0000 0.8875 0.3375 (  1623 PWs)   bands (ev):

    -2.1979  -0.7816   2.4251   2.8466   8.9249   9.1922  11.9644  13.9513

          k = 0.0000 0.8750 0.3750 (  1614 PWs)   bands (ev):

    -2.2218  -0.7375   2.3057   2.8612   9.3115   9.5885  11.4140  13.5869

          k = 0.0000 0.8625 0.4125 (  1616 PWs)   bands (ev):

    -2.2373  -0.7113   2.1973   2.9071   9.7133   9.9641  10.9176  13.2300

          k = 0.0000 0.8500 0.4500 (  1612 PWs)   bands (ev):

    -2.2446  -0.7030   2.1015   2.9832  10.0677  10.1264  10.7277  12.8840

          k = 0.0000 0.8375 0.4875 (  1612 PWs)   bands (ev):

    -2.2438  -0.7109   2.0197   3.0863   9.6847  10.5443  11.0613  12.5547

          k = 0.0000 0.8250 0.5250 (  1611 PWs)   bands (ev):

    -2.2352  -0.7330   1.9529   3.2109   9.2253  10.9515  11.5113  12.2566

          k = 0.0000 0.8125 0.5625 (  1612 PWs)   bands (ev):

    -2.2189  -0.7665   1.9020   3.3493   8.7806  11.2821  11.9915  12.0543

          k = 0.0000 0.8000 0.6000 (  1614 PWs)   bands (ev):

    -2.1951  -0.8088   1.8676   3.4912   8.3710  11.3202  12.1618  12.4884

          k = 0.0000 0.7875 0.6375 (  1614 PWs)   bands (ev):

    -2.1640  -0.8574   1.8502   3.6229   8.0117  11.1131  12.5291  12.9969

          k = 0.0000 0.7750 0.6750 (  1621 PWs)   bands (ev):

    -2.1258  -0.9103   1.8502   3.7274   7.7194  10.8548  12.9558  13.5128

          k =-0.0000 0.7625 0.7125 (  1616 PWs)   bands (ev):

    -2.0804  -0.9662   1.8677   3.7852   7.5132  10.5920  13.3748  14.0275

          k = 0.0000 0.7500 0.7500 (  1624 PWs)   bands (ev):

    -2.0281  -1.0242   1.9027   3.7793   7.4101  10.3359  13.6731  14.2206

          k = 0.0000 0.7125 0.7125 (  1624 PWs)   bands (ev):

    -2.2158  -0.8346   1.8084   3.9114   7.5632  11.0992  13.2165  13.7598

          k = 0.0000 0.6750 0.6750 (  1612 PWs)   bands (ev):

    -2.4403  -0.6191   1.7870   4.0583   7.7333  11.8541  12.7767  13.3554

          k = 0.0000 0.6375 0.6375 (  1608 PWs)   bands (ev):

    -2.6934  -0.3779   1.8334   4.2181   7.9180  12.3557  12.3922  13.2097

          k = 0.0000 0.6000 0.6000 (  1608 PWs)   bands (ev):

    -2.9652  -0.1111   1.9393   4.3889   8.1141  11.9551  12.2580  13.0569

          k = 0.0000 0.5625 0.5625 (  1610 PWs)   bands (ev):

    -3.2463   0.1809   2.0964   4.5681   8.3174  11.5760  11.9190  12.7650

          k = 0.0000 0.5250 0.5250 (  1612 PWs)   bands (ev):

    -3.5288   0.4978   2.2971   4.7526   8.5219  11.2192  11.5683  12.5048

          k = 0.0000 0.4875 0.4875 (  1608 PWs)   bands (ev):

    -3.8063   0.8392   2.5348   4.9391   8.7198  10.8853  11.2307  12.2825

          k = 0.0000 0.4500 0.4500 (  1614 PWs)   bands (ev):

    -4.0741   1.2045   2.8041   5.1237   8.9012  10.5748  10.9120  12.1050

          k = 0.0000 0.4125 0.4125 (  1610 PWs)   bands (ev):

    -4.3283   1.5932   3.1000   5.3021   9.0546  10.2882  10.6140  11.9783

          k = 0.0000 0.3750 0.3750 (  1610 PWs)   bands (ev):

    -4.5662   2.0043   3.4182   5.4703   9.1694  10.0257  10.3373  11.9042

          k = 0.0000 0.3375 0.3375 (  1604 PWs)   bands (ev):

    -4.7857   2.4369   3.7539   5.6242   9.2392   9.7877  10.0819  11.8735

          k = 0.0000 0.3000 0.3000 (  1608 PWs)   bands (ev):

    -4.9851   2.8894   4.1023   5.7609   9.2651   9.5742   9.8474  11.8570

          k = 0.0000 0.2625 0.2625 (  1608 PWs)   bands (ev):

    -5.1634   3.3597   4.4575   5.8781   9.2550   9.3855   9.6332  11.7975

          k = 0.0000 0.2250 0.2250 (  1600 PWs)   bands (ev):

    -5.3194   3.8446   4.8124   5.9752   9.2198   9.2218   9.4386  11.6167

          k = 0.0000 0.1875 0.1875 (  1596 PWs)   bands (ev):

    -5.4524   4.3391   5.1578   6.0526   9.0830   9.1688   9.2630  11.2737

          k = 0.0000 0.1500 0.1500 (  1593 PWs)   bands (ev):

    -5.5619   4.8344   5.4820   6.1119   8.9694   9.1068   9.1075  10.8170

          k = 0.0000 0.1125 0.1125 (  1619 PWs)   bands (ev):

    -5.6475   5.3148   5.7693   6.1549   8.8809   8.9721   9.0347  10.3361

          k = 0.0000 0.0750 0.0750 (  1625 PWs)   bands (ev):

    -5.7089   5.7493   6.0003   6.1838   8.8177   8.8644   8.9409   9.9197

          k = 0.0000 0.0375 0.0375 (  1639 PWs)   bands (ev):

    -5.7458   6.0775   6.1524   6.2004   8.7798   8.7926   8.8278   9.6518

          k = 0.0000 0.0000 0.0000 (  1639 PWs)   bands (ev):

    -5.7581   6.2058   6.2058   6.2058   8.7671   8.7671   8.7671   9.5654

     Writing all to output data dir ./outputs/si.save/

     init_run     :      0.93s CPU      1.12s WALL (       1 calls)
     electrons    :     13.33s CPU      2.06s WALL (       1 calls)

     Called by init_run:
     wfcinit      :      0.00s CPU      0.00s WALL (       1 calls)
     wfcinit:atom :      0.02s CPU      0.02s WALL (     162 calls)
     wfcinit:wfcr :      0.83s CPU      0.94s WALL (     162 calls)
     potinit      :      0.37s CPU      0.48s WALL (       1 calls)
     hinit0       :      0.48s CPU      0.56s WALL (       1 calls)

     Called by electrons:
     c_bands      :     13.33s CPU      2.05s WALL (       1 calls)
     v_of_rho     :      0.01s CPU      0.04s WALL (       1 calls)
     v_h          :      0.00s CPU      0.00s WALL (       1 calls)
     v_xc         :      0.01s CPU      0.03s WALL (       1 calls)
     newd         :      0.03s CPU      0.03s WALL (       1 calls)
     PAW_pot      :      0.36s CPU      0.44s WALL (       1 calls)

     Called by c_bands:
     init_us_2    :      0.05s CPU      0.05s WALL (     162 calls)
     init_us_2:cp :      0.04s CPU      0.05s WALL (     162 calls)
     cegterg      :     12.21s CPU      0.75s WALL (     197 calls)

     Called by sum_band:

     Called by *egterg:
     cdiaghg      :      0.47s CPU      0.52s WALL (    3144 calls)
     cegterg:over :      0.61s CPU      0.67s WALL (    2982 calls)
     cegterg:upda :      0.47s CPU      0.52s WALL (    2982 calls)
     cegterg:last :      0.35s CPU      0.38s WALL (     733 calls)
     h_psi        :     10.23s CPU     -1.42s WALL (    3341 calls)
     s_psi        :      0.50s CPU      0.56s WALL (    3341 calls)
     g_psi        :      0.17s CPU      0.18s WALL (    2982 calls)

     Called by h_psi:
     h_psi:calbec :      0.59s CPU      0.64s WALL (    3341 calls)
     vloc_psi     :      9.03s CPU     -2.73s WALL (    3341 calls)
     add_vuspsi   :      0.56s CPU      0.62s WALL (    3341 calls)

     General routines
     calbec       :      0.58s CPU      0.64s WALL (    3341 calls)
     fft          :      0.36s CPU      0.39s WALL (      21 calls)
     fftw         :      7.98s CPU     -3.88s WALL (   35464 calls)
     davcio       :      0.02s CPU      0.03s WALL (     324 calls)

     Parallel routines

     PAW routines
     PAW_pot      :      0.36s CPU      0.44s WALL (       1 calls)

     PWSCF        :     14.58s CPU      3.67s WALL


   This run was terminated on:   6:11: 1  19Dec2024            

=------------------------------------------------------------------------------=
   JOB DONE.
=------------------------------------------------------------------------------=
