
     Program PWSCF v.7.0 starts on 19Dec2024 at  6:10:31 

     This program is part of the open-source Quantum ESPRESSO suite
     for quantum simulation of materials; please cite
         "P. Giannozzi et al., J. Phys.:Condens. Matter 21 395502 (2009);
         "P. Giannozzi et al., J. Phys.:Condens. Matter 29 465901 (2017);
         "P. Giannozzi et al., J. Chem. Phys. 152 154105 (2020);
          URL http://www.quantum-espresso.org", 
     in publications or presentations arising from this work. More details at
     http://www.quantum-espresso.org/quote

     Parallel version (MPI & OpenMP), running on       2 processor cores
     Number of MPI processes:                 2
     Threads/MPI process:                     1

     MPI processes distributed on     1 nodes
     R & G space division:  proc/nbgrp/npool/nimage =       2
     434 MiB available memory on the printing compute node when the environment starts

     Reading input from pw.scf.wo_soc.in

     Current dimensions of program PWSCF are:
     Max number of different atomic species (ntypx) = 10
     Max number of k-points (npk) =  40000
     Max angular momentum in pseudopotentials (lmaxx) =  4
     Message from routine volume:
     axis vectors are left-handed
     file Si.pbe-n-kjpaw_psl.1.0.0.UPF: wavefunction(s)  3S 3P renormalized

     IMPORTANT: XC functional enforced from input :
     Exchange-correlation= PBE
                           (   1   4   3   4   0   0   0)
     Any further DFT definition will be discarded
     Please, verify this is what you really want

     Message from routine setup:
     using ibrav=0 with symmetry is DISCOURAGED, use correct ibrav instead

     Subspace diagonalization in iterative solution of the eigenvalue problem:
     a serial algorithm will be used


     Parallelization info
     --------------------
     sticks:   dense  smooth     PW     G-vecs:    dense   smooth      PW
     Min         366     366    111                 6469     6469    1066
     Max         367     367    112                 6470     6470    1067
     Sum         733     733    223                12939    12939    2133

     Using Slab Decomposition



     bravais-lattice index     =            0
     lattice parameter (alat)  =      10.2625  a.u.
     unit-cell volume          =     270.2116 (a.u.)^3
     number of atoms/cell      =            2
     number of atomic types    =            1
     number of electrons       =         8.00
     number of Kohn-Sham states=            8
     kinetic-energy cutoff     =      50.0000  Ry
     charge density cutoff     =     200.0000  Ry
     scf convergence threshold =      1.0E-08
     mixing beta               =       0.3000
     number of iterations used =            8  plain     mixing
     Exchange-correlation= PBE
                           (   1   4   3   4   0   0   0)

     celldm(1)=  10.262536  celldm(2)=   0.000000  celldm(3)=   0.000000
     celldm(4)=   0.000000  celldm(5)=   0.000000  celldm(6)=   0.000000

     crystal axes: (cart. coord. in units of alat)
               a(1) = (   0.500000   0.500000   0.000000 )  
               a(2) = (   0.500000   0.000000   0.500000 )  
               a(3) = (   0.000000   0.500000   0.500000 )  

     reciprocal axes: (cart. coord. in units 2 pi/alat)
               b(1) = (  1.000000  1.000000 -1.000000 )  
               b(2) = (  1.000000 -1.000000  1.000000 )  
               b(3) = ( -1.000000  1.000000  1.000000 )  


     PseudoPot. # 1 for Si read from file:
     ../Pseudopotentials/Si.pbe-n-kjpaw_psl.1.0.0.UPF
     MD5 check sum: c39c59da582df4a0d9f10159256ea34e
     Pseudo is Projector augmented-wave + core cor, Zval =  4.0
     Generated using &quot;atomic&quot; code by A. Dal Corso  v.6.3
     Shape of augmentation charge: PSQ
     Using radial grid of 1141 points,  6 beta functions with: 
                l(1) =   0
                l(2) =   0
                l(3) =   1
                l(4) =   1
                l(5) =   2
                l(6) =   2
     Q(r) pseudized with 0 coefficients 


     atomic species   valence    mass     pseudopotential
        Si             4.00    28.08500     Si( 1.00)

     Starting magnetic structure 
     atomic species   magnetization
        Si           1.000

     48 Sym. Ops., with inversion, found (24 have fractional translation)


                                    s                        frac. trans.

      isym =  1     identity                                     

 cryst.   s( 1) = (     1          0          0      )
                  (     0          1          0      )
                  (     0          0          1      )

 cart.    s( 1) = (  1.0000000  0.0000000  0.0000000 )
                  (  0.0000000  1.0000000  0.0000000 )
                  (  0.0000000  0.0000000  1.0000000 )


      isym =  2     180 deg rotation - cart. axis [0,0,1]        

 cryst.   s( 2) = (    -1          0          0      )
                  (    -1          0          1      )
                  (    -1          1          0      )

 cart.    s( 2) = ( -1.0000000  0.0000000  0.0000000 )
                  (  0.0000000 -1.0000000  0.0000000 )
                  (  0.0000000  0.0000000  1.0000000 )


      isym =  3     180 deg rotation - cart. axis [0,1,0]        

 cryst.   s( 3) = (     0         -1          1      )
                  (     0         -1          0      )
                  (     1         -1          0      )

 cart.    s( 3) = ( -1.0000000  0.0000000  0.0000000 )
                  (  0.0000000  1.0000000  0.0000000 )
                  (  0.0000000  0.0000000 -1.0000000 )


      isym =  4     180 deg rotation - cart. axis [1,0,0]        

 cryst.   s( 4) = (     0          1         -1      )
                  (     1          0         -1      )
                  (     0          0         -1      )

 cart.    s( 4) = (  1.0000000  0.0000000  0.0000000 )
                  (  0.0000000 -1.0000000  0.0000000 )
                  (  0.0000000  0.0000000 -1.0000000 )


      isym =  5     180 deg rotation - cart. axis [1,1,0]        

 cryst.   s( 5) = (     1          0          0      )    f =( -0.2500000 )
                  (     1         -1          0      )       ( -0.2500000 )
                  (     1          0         -1      )       ( -0.2500000 )

 cart.    s( 5) = (  0.0000000  1.0000000  0.0000000 )    f =( -0.2500000 )
                  (  1.0000000  0.0000000  0.0000000 )       ( -0.2500000 )
                  (  0.0000000  0.0000000 -1.0000000 )       ( -0.2500000 )


      isym =  6     180 deg rotation - cart. axis [1,-1,0]       

 cryst.   s( 6) = (    -1          0          0      )    f =( -0.2500000 )
                  (     0          0         -1      )       ( -0.2500000 )
                  (     0         -1          0      )       ( -0.2500000 )

 cart.    s( 6) = (  0.0000000 -1.0000000  0.0000000 )    f =( -0.2500000 )
                  ( -1.0000000  0.0000000  0.0000000 )       ( -0.2500000 )
                  (  0.0000000  0.0000000 -1.0000000 )       ( -0.2500000 )


      isym =  7      90 deg rotation - cart. axis [0,0,-1]       

 cryst.   s( 7) = (     0          1         -1      )    f =( -0.2500000 )
                  (    -1          1          0      )       ( -0.2500000 )
                  (     0          1          0      )       ( -0.2500000 )

 cart.    s( 7) = (  0.0000000  1.0000000  0.0000000 )    f =( -0.2500000 )
                  ( -1.0000000  0.0000000  0.0000000 )       ( -0.2500000 )
                  (  0.0000000  0.0000000  1.0000000 )       ( -0.2500000 )


      isym =  8      90 deg rotation - cart. axis [0,0,1]        

 cryst.   s( 8) = (     0         -1          1      )    f =( -0.2500000 )
                  (     0          0          1      )       ( -0.2500000 )
                  (    -1          0          1      )       ( -0.2500000 )

 cart.    s( 8) = (  0.0000000 -1.0000000  0.0000000 )    f =( -0.2500000 )
                  (  1.0000000  0.0000000  0.0000000 )       ( -0.2500000 )
                  (  0.0000000  0.0000000  1.0000000 )       ( -0.2500000 )


      isym =  9     180 deg rotation - cart. axis [1,0,1]        

 cryst.   s( 9) = (    -1          1          0      )    f =( -0.2500000 )
                  (     0          1          0      )       ( -0.2500000 )
                  (     0          1         -1      )       ( -0.2500000 )

 cart.    s( 9) = (  0.0000000  0.0000000  1.0000000 )    f =( -0.2500000 )
                  (  0.0000000 -1.0000000  0.0000000 )       ( -0.2500000 )
                  (  1.0000000  0.0000000  0.0000000 )       ( -0.2500000 )


      isym = 10     180 deg rotation - cart. axis [-1,0,1]       

 cryst.   s(10) = (     0          0         -1      )    f =( -0.2500000 )
                  (     0         -1          0      )       ( -0.2500000 )
                  (    -1          0          0      )       ( -0.2500000 )

 cart.    s(10) = (  0.0000000  0.0000000 -1.0000000 )    f =( -0.2500000 )
                  (  0.0000000 -1.0000000  0.0000000 )       ( -0.2500000 )
                  ( -1.0000000  0.0000000  0.0000000 )       ( -0.2500000 )


      isym = 11      90 deg rotation - cart. axis [0,1,0]        

 cryst.   s(11) = (     1         -1          0      )    f =( -0.2500000 )
                  (     1          0         -1      )       ( -0.2500000 )
                  (     1          0          0      )       ( -0.2500000 )

 cart.    s(11) = (  0.0000000  0.0000000  1.0000000 )    f =( -0.2500000 )
                  (  0.0000000  1.0000000  0.0000000 )       ( -0.2500000 )
                  ( -1.0000000  0.0000000  0.0000000 )       ( -0.2500000 )


      isym = 12      90 deg rotation - cart. axis [0,-1,0]       

 cryst.   s(12) = (     0          0          1      )    f =( -0.2500000 )
                  (    -1          0          1      )       ( -0.2500000 )
                  (     0         -1          1      )       ( -0.2500000 )

 cart.    s(12) = (  0.0000000  0.0000000 -1.0000000 )    f =( -0.2500000 )
                  (  0.0000000  1.0000000  0.0000000 )       ( -0.2500000 )
                  (  1.0000000  0.0000000  0.0000000 )       ( -0.2500000 )


      isym = 13     180 deg rotation - cart. axis [0,1,1]        

 cryst.   s(13) = (    -1          0          1      )    f =( -0.2500000 )
                  (     0         -1          1      )       ( -0.2500000 )
                  (     0          0          1      )       ( -0.2500000 )

 cart.    s(13) = ( -1.0000000  0.0000000  0.0000000 )    f =( -0.2500000 )
                  (  0.0000000  0.0000000  1.0000000 )       ( -0.2500000 )
                  (  0.0000000  1.0000000  0.0000000 )       ( -0.2500000 )


      isym = 14     180 deg rotation - cart. axis [0,1,-1]       

 cryst.   s(14) = (     0         -1          0      )    f =( -0.2500000 )
                  (    -1          0          0      )       ( -0.2500000 )
                  (     0          0         -1      )       ( -0.2500000 )

 cart.    s(14) = ( -1.0000000  0.0000000  0.0000000 )    f =( -0.2500000 )
                  (  0.0000000  0.0000000 -1.0000000 )       ( -0.2500000 )
                  (  0.0000000 -1.0000000  0.0000000 )       ( -0.2500000 )


      isym = 15      90 deg rotation - cart. axis [-1,0,0]       

 cryst.   s(15) = (     1          0         -1      )    f =( -0.2500000 )
                  (     1          0          0      )       ( -0.2500000 )
                  (     1         -1          0      )       ( -0.2500000 )

 cart.    s(15) = (  1.0000000  0.0000000  0.0000000 )    f =( -0.2500000 )
                  (  0.0000000  0.0000000  1.0000000 )       ( -0.2500000 )
                  (  0.0000000 -1.0000000  0.0000000 )       ( -0.2500000 )


      isym = 16      90 deg rotation - cart. axis [1,0,0]        

 cryst.   s(16) = (     0          1          0      )    f =( -0.2500000 )
                  (     0          1         -1      )       ( -0.2500000 )
                  (    -1          1          0      )       ( -0.2500000 )

 cart.    s(16) = (  1.0000000  0.0000000  0.0000000 )    f =( -0.2500000 )
                  (  0.0000000  0.0000000 -1.0000000 )       ( -0.2500000 )
                  (  0.0000000  1.0000000  0.0000000 )       ( -0.2500000 )


      isym = 17     120 deg rotation - cart. axis [-1,-1,-1]     

 cryst.   s(17) = (     0          1          0      )
                  (     0          0          1      )
                  (     1          0          0      )

 cart.    s(17) = (  0.0000000  1.0000000  0.0000000 )
                  (  0.0000000  0.0000000  1.0000000 )
                  (  1.0000000  0.0000000  0.0000000 )


      isym = 18     120 deg rotation - cart. axis [-1,1,1]       

 cryst.   s(18) = (     0         -1          0      )
                  (     1         -1          0      )
                  (     0         -1          1      )

 cart.    s(18) = (  0.0000000 -1.0000000  0.0000000 )
                  (  0.0000000  0.0000000  1.0000000 )
                  ( -1.0000000  0.0000000  0.0000000 )


      isym = 19     120 deg rotation - cart. axis [1,1,-1]       

 cryst.   s(19) = (     1          0         -1      )
                  (     0          0         -1      )
                  (     0          1         -1      )

 cart.    s(19) = (  0.0000000  1.0000000  0.0000000 )
                  (  0.0000000  0.0000000 -1.0000000 )
                  ( -1.0000000  0.0000000  0.0000000 )


      isym = 20     120 deg rotation - cart. axis [1,-1,1]       

 cryst.   s(20) = (    -1          0          1      )
                  (    -1          1          0      )
                  (    -1          0          0      )

 cart.    s(20) = (  0.0000000 -1.0000000  0.0000000 )
                  (  0.0000000  0.0000000 -1.0000000 )
                  (  1.0000000  0.0000000  0.0000000 )


      isym = 21     120 deg rotation - cart. axis [1,1,1]        

 cryst.   s(21) = (     0          0          1      )
                  (     1          0          0      )
                  (     0          1          0      )

 cart.    s(21) = (  0.0000000  0.0000000  1.0000000 )
                  (  1.0000000  0.0000000  0.0000000 )
                  (  0.0000000  1.0000000  0.0000000 )


      isym = 22     120 deg rotation - cart. axis [-1,1,-1]      

 cryst.   s(22) = (     0          0         -1      )
                  (     0          1         -1      )
                  (     1          0         -1      )

 cart.    s(22) = (  0.0000000  0.0000000  1.0000000 )
                  ( -1.0000000  0.0000000  0.0000000 )
                  (  0.0000000 -1.0000000  0.0000000 )


      isym = 23     120 deg rotation - cart. axis [1,-1,-1]      

 cryst.   s(23) = (    -1          1          0      )
                  (    -1          0          0      )
                  (    -1          0          1      )

 cart.    s(23) = (  0.0000000  0.0000000 -1.0000000 )
                  ( -1.0000000  0.0000000  0.0000000 )
                  (  0.0000000  1.0000000  0.0000000 )


      isym = 24     120 deg rotation - cart. axis [-1,-1,1]      

 cryst.   s(24) = (     1         -1          0      )
                  (     0         -1          1      )
                  (     0         -1          0      )

 cart.    s(24) = (  0.0000000  0.0000000 -1.0000000 )
                  (  1.0000000  0.0000000  0.0000000 )
                  (  0.0000000 -1.0000000  0.0000000 )


      isym = 25     inversion                                    

 cryst.   s(25) = (    -1          0          0      )    f =( -0.2500000 )
                  (     0         -1          0      )       ( -0.2500000 )
                  (     0          0         -1      )       ( -0.2500000 )

 cart.    s(25) = ( -1.0000000  0.0000000  0.0000000 )    f =( -0.2500000 )
                  (  0.0000000 -1.0000000  0.0000000 )       ( -0.2500000 )
                  (  0.0000000  0.0000000 -1.0000000 )       ( -0.2500000 )


      isym = 26     inv. 180 deg rotation - cart. axis [0,0,1]   

 cryst.   s(26) = (     1          0          0      )    f =( -0.2500000 )
                  (     1          0         -1      )       ( -0.2500000 )
                  (     1         -1          0      )       ( -0.2500000 )

 cart.    s(26) = (  1.0000000  0.0000000  0.0000000 )    f =( -0.2500000 )
                  (  0.0000000  1.0000000  0.0000000 )       ( -0.2500000 )
                  (  0.0000000  0.0000000 -1.0000000 )       ( -0.2500000 )


      isym = 27     inv. 180 deg rotation - cart. axis [0,1,0]   

 cryst.   s(27) = (     0          1         -1      )    f =( -0.2500000 )
                  (     0          1          0      )       ( -0.2500000 )
                  (    -1          1          0      )       ( -0.2500000 )

 cart.    s(27) = (  1.0000000  0.0000000  0.0000000 )    f =( -0.2500000 )
                  (  0.0000000 -1.0000000  0.0000000 )       ( -0.2500000 )
                  (  0.0000000  0.0000000  1.0000000 )       ( -0.2500000 )


      isym = 28     inv. 180 deg rotation - cart. axis [1,0,0]   

 cryst.   s(28) = (     0         -1          1      )    f =( -0.2500000 )
                  (    -1          0          1      )       ( -0.2500000 )
                  (     0          0          1      )       ( -0.2500000 )

 cart.    s(28) = ( -1.0000000  0.0000000  0.0000000 )    f =( -0.2500000 )
                  (  0.0000000  1.0000000  0.0000000 )       ( -0.2500000 )
                  (  0.0000000  0.0000000  1.0000000 )       ( -0.2500000 )


      isym = 29     inv. 180 deg rotation - cart. axis [1,1,0]   

 cryst.   s(29) = (    -1          0          0      )
                  (    -1          1          0      )
                  (    -1          0          1      )

 cart.    s(29) = (  0.0000000 -1.0000000  0.0000000 )
                  ( -1.0000000  0.0000000  0.0000000 )
                  (  0.0000000  0.0000000  1.0000000 )


      isym = 30     inv. 180 deg rotation - cart. axis [1,-1,0]  

 cryst.   s(30) = (     1          0          0      )
                  (     0          0          1      )
                  (     0          1          0      )

 cart.    s(30) = (  0.0000000  1.0000000  0.0000000 )
                  (  1.0000000  0.0000000  0.0000000 )
                  (  0.0000000  0.0000000  1.0000000 )


      isym = 31     inv.  90 deg rotation - cart. axis [0,0,-1]  

 cryst.   s(31) = (     0         -1          1      )
                  (     1         -1          0      )
                  (     0         -1          0      )

 cart.    s(31) = (  0.0000000 -1.0000000  0.0000000 )
                  (  1.0000000  0.0000000  0.0000000 )
                  (  0.0000000  0.0000000 -1.0000000 )


      isym = 32     inv.  90 deg rotation - cart. axis [0,0,1]   

 cryst.   s(32) = (     0          1         -1      )
                  (     0          0         -1      )
                  (     1          0         -1      )

 cart.    s(32) = (  0.0000000  1.0000000  0.0000000 )
                  ( -1.0000000  0.0000000  0.0000000 )
                  (  0.0000000  0.0000000 -1.0000000 )


      isym = 33     inv. 180 deg rotation - cart. axis [1,0,1]   

 cryst.   s(33) = (     1         -1          0      )
                  (     0         -1          0      )
                  (     0         -1          1      )

 cart.    s(33) = (  0.0000000  0.0000000 -1.0000000 )
                  (  0.0000000  1.0000000  0.0000000 )
                  ( -1.0000000  0.0000000  0.0000000 )


      isym = 34     inv. 180 deg rotation - cart. axis [-1,0,1]  

 cryst.   s(34) = (     0          0          1      )
                  (     0          1          0      )
                  (     1          0          0      )

 cart.    s(34) = (  0.0000000  0.0000000  1.0000000 )
                  (  0.0000000  1.0000000  0.0000000 )
                  (  1.0000000  0.0000000  0.0000000 )


      isym = 35     inv.  90 deg rotation - cart. axis [0,1,0]   

 cryst.   s(35) = (    -1          1          0      )
                  (    -1          0          1      )
                  (    -1          0          0      )

 cart.    s(35) = (  0.0000000  0.0000000 -1.0000000 )
                  (  0.0000000 -1.0000000  0.0000000 )
                  (  1.0000000  0.0000000  0.0000000 )


      isym = 36     inv.  90 deg rotation - cart. axis [0,-1,0]  

 cryst.   s(36) = (     0          0         -1      )
                  (     1          0         -1      )
                  (     0          1         -1      )

 cart.    s(36) = (  0.0000000  0.0000000  1.0000000 )
                  (  0.0000000 -1.0000000  0.0000000 )
                  ( -1.0000000  0.0000000  0.0000000 )


      isym = 37     inv. 180 deg rotation - cart. axis [0,1,1]   

 cryst.   s(37) = (     1          0         -1      )
                  (     0          1         -1      )
                  (     0          0         -1      )

 cart.    s(37) = (  1.0000000  0.0000000  0.0000000 )
                  (  0.0000000  0.0000000 -1.0000000 )
                  (  0.0000000 -1.0000000  0.0000000 )


      isym = 38     inv. 180 deg rotation - cart. axis [0,1,-1]  

 cryst.   s(38) = (     0          1          0      )
                  (     1          0          0      )
                  (     0          0          1      )

 cart.    s(38) = (  1.0000000  0.0000000  0.0000000 )
                  (  0.0000000  0.0000000  1.0000000 )
                  (  0.0000000  1.0000000  0.0000000 )


      isym = 39     inv.  90 deg rotation - cart. axis [-1,0,0]  

 cryst.   s(39) = (    -1          0          1      )
                  (    -1          0          0      )
                  (    -1          1          0      )

 cart.    s(39) = ( -1.0000000  0.0000000  0.0000000 )
                  (  0.0000000  0.0000000 -1.0000000 )
                  (  0.0000000  1.0000000  0.0000000 )


      isym = 40     inv.  90 deg rotation - cart. axis [1,0,0]   

 cryst.   s(40) = (     0         -1          0      )
                  (     0         -1          1      )
                  (     1         -1          0      )

 cart.    s(40) = ( -1.0000000  0.0000000  0.0000000 )
                  (  0.0000000  0.0000000  1.0000000 )
                  (  0.0000000 -1.0000000  0.0000000 )


      isym = 41     inv. 120 deg rotation - cart. axis [-1,-1,-1]

 cryst.   s(41) = (     0         -1          0      )    f =( -0.2500000 )
                  (     0          0         -1      )       ( -0.2500000 )
                  (    -1          0          0      )       ( -0.2500000 )

 cart.    s(41) = (  0.0000000 -1.0000000  0.0000000 )    f =( -0.2500000 )
                  (  0.0000000  0.0000000 -1.0000000 )       ( -0.2500000 )
                  ( -1.0000000  0.0000000  0.0000000 )       ( -0.2500000 )


      isym = 42     inv. 120 deg rotation - cart. axis [-1,1,1]  

 cryst.   s(42) = (     0          1          0      )    f =( -0.2500000 )
                  (    -1          1          0      )       ( -0.2500000 )
                  (     0          1         -1      )       ( -0.2500000 )

 cart.    s(42) = (  0.0000000  1.0000000  0.0000000 )    f =( -0.2500000 )
                  (  0.0000000  0.0000000 -1.0000000 )       ( -0.2500000 )
                  (  1.0000000  0.0000000  0.0000000 )       ( -0.2500000 )


      isym = 43     inv. 120 deg rotation - cart. axis [1,1,-1]  

 cryst.   s(43) = (    -1          0          1      )    f =( -0.2500000 )
                  (     0          0          1      )       ( -0.2500000 )
                  (     0         -1          1      )       ( -0.2500000 )

 cart.    s(43) = (  0.0000000 -1.0000000  0.0000000 )    f =( -0.2500000 )
                  (  0.0000000  0.0000000  1.0000000 )       ( -0.2500000 )
                  (  1.0000000  0.0000000  0.0000000 )       ( -0.2500000 )


      isym = 44     inv. 120 deg rotation - cart. axis [1,-1,1]  

 cryst.   s(44) = (     1          0         -1      )    f =( -0.2500000 )
                  (     1         -1          0      )       ( -0.2500000 )
                  (     1          0          0      )       ( -0.2500000 )

 cart.    s(44) = (  0.0000000  1.0000000  0.0000000 )    f =( -0.2500000 )
                  (  0.0000000  0.0000000  1.0000000 )       ( -0.2500000 )
                  ( -1.0000000  0.0000000  0.0000000 )       ( -0.2500000 )


      isym = 45     inv. 120 deg rotation - cart. axis [1,1,1]   

 cryst.   s(45) = (     0          0         -1      )    f =( -0.2500000 )
                  (    -1          0          0      )       ( -0.2500000 )
                  (     0         -1          0      )       ( -0.2500000 )

 cart.    s(45) = (  0.0000000  0.0000000 -1.0000000 )    f =( -0.2500000 )
                  ( -1.0000000  0.0000000  0.0000000 )       ( -0.2500000 )
                  (  0.0000000 -1.0000000  0.0000000 )       ( -0.2500000 )


      isym = 46     inv. 120 deg rotation - cart. axis [-1,1,-1] 

 cryst.   s(46) = (     0          0          1      )    f =( -0.2500000 )
                  (     0         -1          1      )       ( -0.2500000 )
                  (    -1          0          1      )       ( -0.2500000 )

 cart.    s(46) = (  0.0000000  0.0000000 -1.0000000 )    f =( -0.2500000 )
                  (  1.0000000  0.0000000  0.0000000 )       ( -0.2500000 )
                  (  0.0000000  1.0000000  0.0000000 )       ( -0.2500000 )


      isym = 47     inv. 120 deg rotation - cart. axis [1,-1,-1] 

 cryst.   s(47) = (     1         -1          0      )    f =( -0.2500000 )
                  (     1          0          0      )       ( -0.2500000 )
                  (     1          0         -1      )       ( -0.2500000 )

 cart.    s(47) = (  0.0000000  0.0000000  1.0000000 )    f =( -0.2500000 )
                  (  1.0000000  0.0000000  0.0000000 )       ( -0.2500000 )
                  (  0.0000000 -1.0000000  0.0000000 )       ( -0.2500000 )


      isym = 48     inv. 120 deg rotation - cart. axis [-1,-1,1] 

 cryst.   s(48) = (    -1          1          0      )    f =( -0.2500000 )
                  (     0          1         -1      )       ( -0.2500000 )
                  (     0          1          0      )       ( -0.2500000 )

 cart.    s(48) = (  0.0000000  0.0000000  1.0000000 )    f =( -0.2500000 )
                  ( -1.0000000  0.0000000  0.0000000 )       ( -0.2500000 )
                  (  0.0000000  1.0000000  0.0000000 )       ( -0.2500000 )


   Cartesian axes

     site n.     atom                  positions (alat units)
         1           Si  tau(   1) = (   0.0000000   0.0000000   0.0000000  )
         2           Si  tau(   2) = (   0.2500000   0.2500000   0.2500000  )

   Crystallographic axes

     site n.     atom                  positions (cryst. coord.)
         1           Si  tau(   1) = (  0.0000000  0.0000000  0.0000000  )
         2           Si  tau(   2) = (  0.2500000  0.2500000  0.2500000  )

     number of k points=    20  Marzari-Vanderbilt smearing, width (Ry)=  0.0050
                       cart. coord. in units 2pi/alat
        k(    1) = (   0.0000000   0.0000000   0.0000000), wk =   0.0029155
        k(    2) = (  -0.1428571   0.1428571   0.1428571), wk =   0.0233236
        k(    3) = (  -0.2857143   0.2857143   0.2857143), wk =   0.0233236
        k(    4) = (  -0.4285714   0.4285714   0.4285714), wk =   0.0233236
        k(    5) = (   0.0000000   0.0000000   0.2857143), wk =   0.0174927
        k(    6) = (  -0.1428571   0.1428571   0.4285714), wk =   0.0699708
        k(    7) = (  -0.2857143   0.2857143   0.5714286), wk =   0.0699708
        k(    8) = (   0.5714286  -0.5714286  -0.2857143), wk =   0.0699708
        k(    9) = (   0.4285714  -0.4285714  -0.1428571), wk =   0.0699708
        k(   10) = (   0.2857143  -0.2857143  -0.0000000), wk =   0.0349854
        k(   11) = (   0.0000000   0.0000000   0.5714286), wk =   0.0174927
        k(   12) = (  -0.1428571   0.1428571   0.7142857), wk =   0.0699708
        k(   13) = (   0.7142857  -0.7142857  -0.1428571), wk =   0.0699708
        k(   14) = (   0.5714286  -0.5714286   0.0000000), wk =   0.0349854
        k(   15) = (   0.0000000   0.0000000   0.8571429), wk =   0.0174927
        k(   16) = (   0.8571429  -0.8571429  -0.0000000), wk =   0.0349854
        k(   17) = (   0.0000000   0.2857143   0.5714286), wk =   0.0699708
        k(   18) = (   0.8571429  -0.5714286  -0.2857143), wk =   0.1399417
        k(   19) = (   1.0000000  -0.7142857  -0.1428571), wk =   0.0699708
        k(   20) = (   0.8571429  -0.5714286   0.0000000), wk =   0.0699708

                       cryst. coord.
        k(    1) = (   0.0000000   0.0000000   0.0000000), wk =   0.0029155
        k(    2) = (   0.0000000   0.0000000   0.1428571), wk =   0.0233236
        k(    3) = (   0.0000000   0.0000000   0.2857143), wk =   0.0233236
        k(    4) = (   0.0000000   0.0000000   0.4285714), wk =   0.0233236
        k(    5) = (   0.0000000   0.1428571   0.1428571), wk =   0.0174927
        k(    6) = (   0.0000000   0.1428571   0.2857143), wk =   0.0699708
        k(    7) = (   0.0000000   0.1428571   0.4285714), wk =   0.0699708
        k(    8) = (   0.0000000   0.1428571  -0.4285714), wk =   0.0699708
        k(    9) = (   0.0000000   0.1428571  -0.2857143), wk =   0.0699708
        k(   10) = (   0.0000000   0.1428571  -0.1428571), wk =   0.0349854
        k(   11) = (   0.0000000   0.2857143   0.2857143), wk =   0.0174927
        k(   12) = (   0.0000000   0.2857143   0.4285714), wk =   0.0699708
        k(   13) = (   0.0000000   0.2857143  -0.4285714), wk =   0.0699708
        k(   14) = (   0.0000000   0.2857143  -0.2857143), wk =   0.0349854
        k(   15) = (   0.0000000   0.4285714   0.4285714), wk =   0.0174927
        k(   16) = (   0.0000000   0.4285714  -0.4285714), wk =   0.0349854
        k(   17) = (   0.1428571   0.2857143   0.4285714), wk =   0.0699708
        k(   18) = (   0.1428571   0.2857143  -0.4285714), wk =   0.1399417
        k(   19) = (   0.1428571   0.4285714  -0.4285714), wk =   0.0699708
        k(   20) = (   0.1428571   0.4285714  -0.2857143), wk =   0.0699708

     Dense  grid:    12939 G-vectors     FFT dimensions: (  36,  36,  36)

     Dynamical RAM for                 wfc:       0.10 MB

     Dynamical RAM for     wfc (w. buffer):       4.03 MB

     Dynamical RAM for           str. fact:       0.10 MB

     Dynamical RAM for           local pot:       0.00 MB

     Dynamical RAM for          nlocal pot:       0.44 MB

     Dynamical RAM for                qrad:       1.14 MB

     Dynamical RAM for          rho,v,vnew:       1.66 MB

     Dynamical RAM for               rhoin:       0.55 MB

     Dynamical RAM for            rho*nmix:       3.16 MB

     Dynamical RAM for           G-vectors:       0.42 MB

     Dynamical RAM for          h,s,v(r/c):       0.05 MB

     Dynamical RAM for          <psi|beta>:       0.00 MB

     Dynamical RAM for                 psi:       0.39 MB

     Dynamical RAM for                hpsi:       0.39 MB

     Dynamical RAM for                spsi:       0.39 MB

     Dynamical RAM for      wfcinit/wfcrot:       0.20 MB

     Dynamical RAM for           addusdens:      18.66 MB

     Dynamical RAM for          addusforce:      18.87 MB

     Dynamical RAM for         addusstress:      19.99 MB

     Estimated static dynamical RAM per process >       9.61 MB

     Estimated max dynamical RAM per process >      32.76 MB

     Estimated total dynamical RAM >      65.52 MB
     Generating pointlists ...
     new r_m :   0.1786 (alat units)  1.8331 (a.u.) for type    1

     Initial potential from superposition of free atoms

     starting charge       7.9989, renormalised to       8.0000
     Starting wfcs are    8 randomized atomic wfcs
     Checking if some PAW data can be deallocated... 

     total cpu time spent up to now is        1.8 secs

     per-process dynamical memory:    19.4 Mb

     Self-consistent Calculation

     iteration #  1     ecut=    50.00 Ry     beta= 0.30
     Davidson diagonalization with overlap

---- Real-time Memory Report at c_bands before calling an iterative solver
            61 MiB given to the printing process from OS
            19 MiB allocation reported by mallinfo(arena+hblkhd)
           385 MiB available memory on the node where the printing process lives
------------------
     ethr =  1.00E-02,  avg # of iterations =  3.5

     total cpu time spent up to now is        3.4 secs

     total energy              =     -93.05482420 Ry
     estimated scf accuracy    <       0.10677263 Ry

     total magnetization       =     1.66 Bohr mag/cell
     absolute magnetization    =     1.66 Bohr mag/cell

     iteration #  2     ecut=    50.00 Ry     beta= 0.30
     Davidson diagonalization with overlap

---- Real-time Memory Report at c_bands before calling an iterative solver
            68 MiB given to the printing process from OS
            40 MiB allocation reported by mallinfo(arena+hblkhd)
           343 MiB available memory on the node where the printing process lives
------------------
     ethr =  1.33E-03,  avg # of iterations =  1.5

     total cpu time spent up to now is        4.7 secs

     total energy              =     -93.40294165 Ry
     estimated scf accuracy    <       0.06829714 Ry

     total magnetization       =     0.58 Bohr mag/cell
     absolute magnetization    =     0.58 Bohr mag/cell

     iteration #  3     ecut=    50.00 Ry     beta= 0.30
     Davidson diagonalization with overlap

---- Real-time Memory Report at c_bands before calling an iterative solver
            68 MiB given to the printing process from OS
            40 MiB allocation reported by mallinfo(arena+hblkhd)
           341 MiB available memory on the node where the printing process lives
------------------
     ethr =  8.54E-04,  avg # of iterations =  1.6

     total cpu time spent up to now is        6.0 secs

     total energy              =     -93.45089564 Ry
     estimated scf accuracy    <       0.00253504 Ry

     total magnetization       =     0.01 Bohr mag/cell
     absolute magnetization    =     0.02 Bohr mag/cell

     iteration #  4     ecut=    50.00 Ry     beta= 0.30
     Davidson diagonalization with overlap

---- Real-time Memory Report at c_bands before calling an iterative solver
            69 MiB given to the printing process from OS
            41 MiB allocation reported by mallinfo(arena+hblkhd)
           341 MiB available memory on the node where the printing process lives
------------------
     ethr =  3.17E-05,  avg # of iterations =  3.2

     total cpu time spent up to now is        7.4 secs

     WARNING: integrated charge=     8.00000836, expected=     8.00000000

     total energy              =     -93.45215556 Ry
     estimated scf accuracy    <       0.00045019 Ry

     total magnetization       =    -0.00 Bohr mag/cell
     absolute magnetization    =     0.01 Bohr mag/cell

     iteration #  5     ecut=    50.00 Ry     beta= 0.30
     Davidson diagonalization with overlap

---- Real-time Memory Report at c_bands before calling an iterative solver
            69 MiB given to the printing process from OS
            41 MiB allocation reported by mallinfo(arena+hblkhd)
           340 MiB available memory on the node where the printing process lives
------------------
     ethr =  5.63E-06,  avg # of iterations =  1.7

     total cpu time spent up to now is        9.1 secs

     WARNING: integrated charge=     8.00000762, expected=     8.00000000

     total energy              =     -93.45254265 Ry
     estimated scf accuracy    <       0.00007858 Ry

     total magnetization       =    -0.00 Bohr mag/cell
     absolute magnetization    =     0.00 Bohr mag/cell

     iteration #  6     ecut=    50.00 Ry     beta= 0.30
     Davidson diagonalization with overlap

---- Real-time Memory Report at c_bands before calling an iterative solver
            69 MiB given to the printing process from OS
            41 MiB allocation reported by mallinfo(arena+hblkhd)
           339 MiB available memory on the node where the printing process lives
------------------
     ethr =  9.82E-07,  avg # of iterations =  1.4

     total cpu time spent up to now is       10.4 secs

     WARNING: integrated charge=     8.00000179, expected=     8.00000000

     total energy              =     -93.45254294 Ry
     estimated scf accuracy    <       0.00001028 Ry

     total magnetization       =     0.00 Bohr mag/cell
     absolute magnetization    =     0.00 Bohr mag/cell

     iteration #  7     ecut=    50.00 Ry     beta= 0.30
     Davidson diagonalization with overlap

---- Real-time Memory Report at c_bands before calling an iterative solver
            70 MiB given to the printing process from OS
            42 MiB allocation reported by mallinfo(arena+hblkhd)
           338 MiB available memory on the node where the printing process lives
------------------
     ethr =  1.29E-07,  avg # of iterations =  2.0

     total cpu time spent up to now is       12.1 secs

     total energy              =     -93.45255481 Ry
     estimated scf accuracy    <       0.00000361 Ry

     total magnetization       =    -0.00 Bohr mag/cell
     absolute magnetization    =     0.00 Bohr mag/cell

     iteration #  8     ecut=    50.00 Ry     beta= 0.30
     Davidson diagonalization with overlap

---- Real-time Memory Report at c_bands before calling an iterative solver
            70 MiB given to the printing process from OS
            42 MiB allocation reported by mallinfo(arena+hblkhd)
           337 MiB available memory on the node where the printing process lives
------------------
     ethr =  4.51E-08,  avg # of iterations =  1.5

     total cpu time spent up to now is       13.3 secs

     total energy              =     -93.45255516 Ry
     estimated scf accuracy    <       0.00000008 Ry

     total magnetization       =    -0.00 Bohr mag/cell
     absolute magnetization    =     0.00 Bohr mag/cell

     iteration #  9     ecut=    50.00 Ry     beta= 0.30
     Davidson diagonalization with overlap

---- Real-time Memory Report at c_bands before calling an iterative solver
            71 MiB given to the printing process from OS
            43 MiB allocation reported by mallinfo(arena+hblkhd)
           336 MiB available memory on the node where the printing process lives
------------------
     ethr =  1.06E-09,  avg # of iterations =  2.2

     total cpu time spent up to now is       14.6 secs

     total energy              =     -93.45255521 Ry
     estimated scf accuracy    <       0.00000002 Ry

     total magnetization       =    -0.00 Bohr mag/cell
     absolute magnetization    =     0.00 Bohr mag/cell

     iteration # 10     ecut=    50.00 Ry     beta= 0.30
     Davidson diagonalization with overlap

---- Real-time Memory Report at c_bands before calling an iterative solver
            71 MiB given to the printing process from OS
            43 MiB allocation reported by mallinfo(arena+hblkhd)
           336 MiB available memory on the node where the printing process lives
------------------
     ethr =  2.63E-10,  avg # of iterations =  1.8

     Magnetic moment per site  (integrated on atomic sphere of radius R)
     atom   1 (R=0.179)  charge=  1.8255  magn= -0.0000
     atom   2 (R=0.179)  charge=  1.8255  magn= -0.0000

     total cpu time spent up to now is       16.0 secs

     End of self-consistent calculation

 ------ SPIN UP ------------


          k = 0.0000 0.0000 0.0000 (  1639 PWs)   bands (ev):

    -5.7581   6.2058   6.2058   6.2058   8.7671   8.7671   8.7671   9.5656

     occupation numbers 
     1.0000   1.0000   1.0000   1.0000   0.0000   0.0000   0.0000   0.0000

          k =-0.1429 0.1429 0.1429 (  1594 PWs)   bands (ev):

    -5.4920   4.2724   5.8481   5.8481   8.6442   9.2893   9.2893  11.2292

     occupation numbers 
     1.0000   1.0000   1.0000   1.0000   0.0000   0.0000   0.0000   0.0000

          k =-0.2857 0.2857 0.2857 (  1624 PWs)   bands (ev):

    -4.7252   1.6498   5.3317   5.3317   8.1083   9.7406   9.7406  13.6679

     occupation numbers 
     1.0000   1.0000   1.0000   1.0000   0.0000   0.0000   0.0000   0.0000

          k =-0.4286 0.4286 0.4286 (  1616 PWs)   bands (ev):

    -3.6832  -0.3844   5.0428   5.0428   7.7832   9.5859   9.5859  14.0019

     occupation numbers 
     1.0000   1.0000   1.0000   1.0000   0.0000   0.0000   0.0000   0.0000

          k = 0.0000 0.0000 0.2857 (  1607 PWs)   bands (ev):

    -5.4020   4.5738   5.2316   5.2316   8.0862  10.1762  10.1762  10.6367

     occupation numbers 
     1.0000   1.0000   1.0000   1.0000   0.0000   0.0000   0.0000   0.0000

          k =-0.1429 0.1429 0.4286 (  1613 PWs)   bands (ev):

    -4.7948   2.4458   4.6498   4.6885   8.2819  10.1183  10.7658  10.9600

     occupation numbers 
     1.0000   1.0000   1.0000   1.0000   0.0000   0.0000   0.0000   0.0000

          k =-0.2857 0.2857 0.5714 (  1605 PWs)   bands (ev):

    -3.7849   0.2572   3.9605   4.4997   8.3480  10.0337  10.7390  11.9945

     occupation numbers 
     1.0000   1.0000   1.0000   1.0000   0.0000   0.0000   0.0000   0.0000

          k = 0.5714-0.5714-0.2857 (  1602 PWs)   bands (ev):

    -3.2247  -0.6094   3.5453   4.6982   8.4493   9.9411  10.3412  14.3847

     occupation numbers 
     1.0000   1.0000   1.0000   1.0000   0.0000   0.0000   0.0000   0.0000

          k = 0.4286-0.4286-0.1429 (  1620 PWs)   bands (ev):

    -4.1538   0.9386   3.5483   5.2134   8.8561  10.1048  10.1402  12.8669

     occupation numbers 
     1.0000   1.0000   1.0000   1.0000   0.0000   0.0000   0.0000   0.0000

          k = 0.2857-0.2857-0.0000 (  1604 PWs)   bands (ev):

    -5.0556   3.0666   4.2371   5.8079   9.2650   9.4994   9.7634  11.8435

     occupation numbers 
     1.0000   1.0000   1.0000   1.0000   0.0000   0.0000   0.0000   0.0000

          k = 0.0000 0.0000 0.5714 (  1612 PWs)   bands (ev):

    -4.3506   2.0441   4.0650   4.0650   7.1364   8.8173  12.5996  12.5996

     occupation numbers 
     1.0000   1.0000   1.0000   1.0000   0.0000   0.0000   0.0000   0.0000

          k =-0.1429 0.1429 0.7143 (  1621 PWs)   bands (ev):

    -3.4472   0.5385   3.0847   3.8050   7.4192   8.9070  12.8309  12.9888

     occupation numbers 
     1.0000   1.0000   1.0000   1.0000   0.0000   0.0000   0.0000   0.0000

          k = 0.7143-0.7143-0.1429 (  1613 PWs)   bands (ev):

    -2.5273  -0.6436   2.1297   3.9743   7.6592  11.1519  12.4857  12.5719

     occupation numbers 
     1.0000   1.0000   1.0000   1.0000   0.0000   0.0000   0.0000   0.0000

          k = 0.5714-0.5714 0.0000 (  1610 PWs)   bands (ev):

    -3.1789   0.1091   2.0548   4.5248   8.2686  11.6643  12.0027  12.8319

     occupation numbers 
     1.0000   1.0000   1.0000   1.0000   0.0000   0.0000   0.0000   0.0000

          k = 0.0000 0.0000 0.8571 (  1608 PWs)   bands (ev):

    -2.6622  -0.4600   3.4326   3.4326   6.7785   7.2945  15.2552  15.2552

     occupation numbers 
     1.0000   1.0000   1.0000   1.0000   0.0000   0.0000   0.0000   0.0000

          k = 0.8571-0.8571-0.0000 (  1614 PWs)   bands (ev):

    -1.7101  -1.4211   2.5360   3.4943   7.0802   8.3427  15.0319  15.4855

     occupation numbers 
     1.0000   1.0000   1.0000   1.0000   0.0000   0.0000   0.0000   0.0000

          k = 0.0000 0.2857 0.5714 (  1612 PWs)   bands (ev):

    -4.0416   1.3056   3.0875   4.4160   8.7899  10.0433  10.3492  12.3527

     occupation numbers 
     1.0000   1.0000   1.0000   1.0000   0.0000   0.0000   0.0000   0.0000

          k = 0.8571-0.5714-0.2857 (  1615 PWs)   bands (ev):

    -2.9978  -0.2302   2.5156   3.8773   9.2751   9.6918  11.6803  12.8051

     occupation numbers 
     1.0000   1.0000   1.0000   1.0000   0.0000   0.0000   0.0000   0.0000

          k = 1.0000-0.7143-0.1429 (  1631 PWs)   bands (ev):

    -2.4566  -0.5458   2.6032   3.0145   8.4176   8.7853  12.3638  14.8848

     occupation numbers 
     1.0000   1.0000   1.0000   1.0000   0.0000   0.0000   0.0000   0.0000

          k = 0.8571-0.5714 0.0000 (  1609 PWs)   bands (ev):

    -2.0182  -0.9438   1.9617   3.1069   8.9445  11.0491  11.8582  11.9982

     occupation numbers 
     1.0000   1.0000   1.0000   1.0000   0.0000   0.0000   0.0000   0.0000

 ------ SPIN DOWN ----------


          k = 0.0000 0.0000 0.0000 (  1639 PWs)   bands (ev):

    -5.7579   6.2061   6.2061   6.2061   8.7673   8.7673   8.7673   9.5656

     occupation numbers 
     1.0000   1.0000   1.0000   1.0000   0.0000   0.0000   0.0000   0.0000

          k =-0.1429 0.1429 0.1429 (  1594 PWs)   bands (ev):

    -5.4918   4.2726   5.8483   5.8483   8.6444   9.2895   9.2895  11.2293

     occupation numbers 
     1.0000   1.0000   1.0000   1.0000   0.0000   0.0000   0.0000   0.0000

          k =-0.2857 0.2857 0.2857 (  1624 PWs)   bands (ev):

    -4.7250   1.6500   5.3319   5.3319   8.1085   9.7408   9.7408  13.6680

     occupation numbers 
     1.0000   1.0000   1.0000   1.0000   0.0000   0.0000   0.0000   0.0000

          k =-0.4286 0.4286 0.4286 (  1616 PWs)   bands (ev):

    -3.6830  -0.3841   5.0430   5.0430   7.7833   9.5862   9.5862  14.0021

     occupation numbers 
     1.0000   1.0000   1.0000   1.0000   0.0000   0.0000   0.0000   0.0000

          k = 0.0000 0.0000 0.2857 (  1607 PWs)   bands (ev):

    -5.4018   4.5740   5.2318   5.2318   8.0865  10.1764  10.1765  10.6368

     occupation numbers 
     1.0000   1.0000   1.0000   1.0000   0.0000   0.0000   0.0000   0.0000

          k =-0.1429 0.1429 0.4286 (  1613 PWs)   bands (ev):

    -4.7946   2.4460   4.6500   4.6887   8.2821  10.1185  10.7660  10.9603

     occupation numbers 
     1.0000   1.0000   1.0000   1.0000   0.0000   0.0000   0.0000   0.0000

          k =-0.2857 0.2857 0.5714 (  1605 PWs)   bands (ev):

    -3.7846   0.2574   3.9608   4.4999   8.3482  10.0339  10.7393  11.9947

     occupation numbers 
     1.0000   1.0000   1.0000   1.0000   0.0000   0.0000   0.0000   0.0000

          k = 0.5714-0.5714-0.2857 (  1602 PWs)   bands (ev):

    -3.2245  -0.6092   3.5455   4.6985   8.4496   9.9413  10.3415  14.3848

     occupation numbers 
     1.0000   1.0000   1.0000   1.0000   0.0000   0.0000   0.0000   0.0000

          k = 0.4286-0.4286-0.1429 (  1620 PWs)   bands (ev):

    -4.1536   0.9389   3.5485   5.2137   8.8563  10.1051  10.1405  12.8671

     occupation numbers 
     1.0000   1.0000   1.0000   1.0000   0.0000   0.0000   0.0000   0.0000

          k = 0.2857-0.2857-0.0000 (  1604 PWs)   bands (ev):

    -5.0554   3.0668   4.2374   5.8081   9.2651   9.4996   9.7636  11.8437

     occupation numbers 
     1.0000   1.0000   1.0000   1.0000   0.0000   0.0000   0.0000   0.0000

          k = 0.0000 0.0000 0.5714 (  1612 PWs)   bands (ev):

    -4.3504   2.0443   4.0653   4.0653   7.1366   8.8176  12.5998  12.5998

     occupation numbers 
     1.0000   1.0000   1.0000   1.0000   0.0000   0.0000   0.0000   0.0000

          k =-0.1429 0.1429 0.7143 (  1621 PWs)   bands (ev):

    -3.4470   0.5387   3.0849   3.8052   7.4194   8.9072  12.8311  12.9890

     occupation numbers 
     1.0000   1.0000   1.0000   1.0000   0.0000   0.0000   0.0000   0.0000

          k = 0.7143-0.7143-0.1429 (  1613 PWs)   bands (ev):

    -2.5271  -0.6434   2.1299   3.9745   7.6595  11.1522  12.4859  12.5721

     occupation numbers 
     1.0000   1.0000   1.0000   1.0000   0.0000   0.0000   0.0000   0.0000

          k = 0.5714-0.5714 0.0000 (  1610 PWs)   bands (ev):

    -3.1787   0.1093   2.0550   4.5250   8.2688  11.6645  12.0029  12.8321

     occupation numbers 
     1.0000   1.0000   1.0000   1.0000   0.0000   0.0000   0.0000   0.0000

          k = 0.0000 0.0000 0.8571 (  1608 PWs)   bands (ev):

    -2.6620  -0.4598   3.4329   3.4329   6.7787   7.2948  15.2554  15.2554

     occupation numbers 
     1.0000   1.0000   1.0000   1.0000   0.0000   0.0000   0.0000   0.0000

          k = 0.8571-0.8571-0.0000 (  1614 PWs)   bands (ev):

    -1.7099  -1.4209   2.5362   3.4946   7.0805   8.3430  15.0321  15.4856

     occupation numbers 
     1.0000   1.0000   1.0000   1.0000   0.0000   0.0000   0.0000   0.0000

          k = 0.0000 0.2857 0.5714 (  1612 PWs)   bands (ev):

    -4.0414   1.3058   3.0878   4.4162   8.7902  10.0435  10.3494  12.3529

     occupation numbers 
     1.0000   1.0000   1.0000   1.0000   0.0000   0.0000   0.0000   0.0000

          k = 0.8571-0.5714-0.2857 (  1615 PWs)   bands (ev):

    -2.9976  -0.2300   2.5158   3.8775   9.2753   9.6920  11.6805  12.8053

     occupation numbers 
     1.0000   1.0000   1.0000   1.0000   0.0000   0.0000   0.0000   0.0000

          k = 1.0000-0.7143-0.1429 (  1631 PWs)   bands (ev):

    -2.4564  -0.5456   2.6034   3.0148   8.4178   8.7855  12.3640  14.8850

     occupation numbers 
     1.0000   1.0000   1.0000   1.0000   0.0000   0.0000   0.0000   0.0000

          k = 0.8571-0.5714 0.0000 (  1609 PWs)   bands (ev):

    -2.0180  -0.9436   1.9620   3.1071   8.9447  11.0493  11.8584  11.9984

     occupation numbers 
     1.0000   1.0000   1.0000   1.0000   0.0000   0.0000   0.0000   0.0000

     the Fermi energy is     6.5163 ev

!    total energy              =     -93.45255521 Ry

     total all-electron energy =     -1160.144285 Ry
     estimated scf accuracy    <          1.7E-09 Ry
     smearing contrib. (-TS)   =       0.00000000 Ry
     internal energy E=F+TS    =     -93.45255521 Ry

     The total energy is F=E-TS. E is the sum of the following terms:
     one-electron contribution =       5.73817505 Ry
     hartree contribution      =       1.10229758 Ry
     xc contribution           =     -12.30951236 Ry
     ewald contribution        =     -16.79677844 Ry
     one-center paw contrib.   =     -71.18673704 Ry
      -> PAW hartree energy AE =       2.97818817 Ry
      -> PAW hartree energy PS =      -2.96679870 Ry
      -> PAW xc energy AE      =     -40.87567335 Ry
      -> PAW xc energy PS      =       5.27091536 Ry
      -> total E_H with PAW    =       1.11368705 Ry
      -> total E_XC with PAW   =     -47.91427034 Ry

     total magnetization       =    -0.00 Bohr mag/cell
     absolute magnetization    =     0.00 Bohr mag/cell

     convergence has been achieved in  10 iterations

     Forces acting on atoms (cartesian axes, Ry/au):

     atom    1 type  1   force =     0.00000000    0.00000000    0.00000000
     atom    2 type  1   force =     0.00000000    0.00000000    0.00000000
     The non-local contrib.  to forces
     atom    1 type  1   force =     0.00000000   -0.00000000    0.00000000
     atom    2 type  1   force =    -0.00000000    0.00000000   -0.00000000
     The ionic contribution  to forces
     atom    1 type  1   force =     0.00000000   -0.00000000    0.00000000
     atom    2 type  1   force =    -0.00000000   -0.00000000   -0.00000000
     The local contribution  to forces
     atom    1 type  1   force =     0.00000000    0.00000000    0.00000000
     atom    2 type  1   force =    -0.00000000   -0.00000000    0.00000000
     The core correction contribution to forces
     atom    1 type  1   force =    -0.00000000    0.00000000    0.00000000
     atom    2 type  1   force =     0.00000000   -0.00000000    0.00000000
     The Hubbard contrib.    to forces
     atom    1 type  1   force =     0.00000000    0.00000000    0.00000000
     atom    2 type  1   force =     0.00000000    0.00000000    0.00000000
     The SCF correction term to forces
     atom    1 type  1   force =     0.00000000    0.00000000    0.00000000
     atom    2 type  1   force =    -0.00000000   -0.00000000   -0.00000000

     Total force =     0.000000     Total SCF correction =     0.000000


     Computing stress (Cartesian axis) and pressure

          total   stress  (Ry/bohr**3)                   (kbar)     P=       19.84
   0.00013485   0.00000000  -0.00000000           19.84        0.00       -0.00
   0.00000000   0.00013485   0.00000000            0.00       19.84        0.00
   0.00000000   0.00000000   0.00013485            0.00        0.00       19.84

     kinetic stress (kbar)   2210.47      0.00      0.00
                                0.00   2210.47      0.00
                                0.00      0.00   2210.47

     local   stress (kbar)     54.11     -0.00     -0.00
                               -0.00     54.11     -0.00
                               -0.00     -0.00     54.11

     nonloc. stress (kbar)   1603.19      0.00      0.00
                                0.00   1603.19      0.00
                                0.00      0.00   1603.19

     hartree stress (kbar)    200.03      0.00      0.00
                                0.00    200.03      0.00
                                0.00      0.00    200.03

     exc-cor stress (kbar)   2945.53      0.00      0.00
                                0.00   2945.53     -0.00
                                0.00     -0.00   2945.53

     corecor stress (kbar)  -3945.40      0.00      0.00
                                0.00  -3945.40      0.00
                                0.00      0.00  -3945.40

     ewald   stress (kbar)  -3048.09      0.00      0.00
                                0.00  -3048.09      0.00
                                0.00      0.00  -3048.09

     hubbard stress (kbar)      0.00      0.00      0.00
                                0.00      0.00      0.00
                                0.00      0.00      0.00

     DFT-D   stress (kbar)      0.00      0.00      0.00
                                0.00      0.00      0.00
                                0.00      0.00      0.00

     XDM     stress (kbar)      0.00      0.00      0.00
                                0.00      0.00      0.00
                                0.00      0.00      0.00

     dft-nl  stress (kbar)      0.00      0.00      0.00
                                0.00      0.00      0.00
                                0.00      0.00      0.00

     TS-vdW  stress (kbar)      0.00      0.00      0.00
                                0.00      0.00      0.00
                                0.00      0.00      0.00


                                0.00      0.00      0.00
                                0.00      0.00      0.00


                                0.00      0.00      0.00


     Writing all to output data dir ./outputs/si.save/

     init_run     :      1.00s CPU      1.52s WALL (       1 calls)
     electrons    :     11.67s CPU     14.19s WALL (       1 calls)
     forces       :      0.15s CPU      0.19s WALL (       1 calls)
     stress       :      0.55s CPU    -16.68s WALL (       1 calls)

     Called by init_run:
     wfcinit      :      0.21s CPU      0.29s WALL (       1 calls)
     wfcinit:atom :      0.00s CPU      0.00s WALL (      40 calls)
     wfcinit:wfcr :      0.19s CPU      0.26s WALL (      40 calls)
     potinit      :      0.40s CPU      0.55s WALL (       1 calls)
     hinit0       :      0.37s CPU      0.55s WALL (       1 calls)

     Called by electrons:
     c_bands      :      5.84s CPU      7.09s WALL (      10 calls)
     sum_band     :      1.88s CPU      2.49s WALL (      10 calls)
     v_of_rho     :      0.32s CPU      0.39s WALL (      11 calls)
     v_h          :      0.00s CPU      0.01s WALL (      11 calls)
     v_xc         :      0.40s CPU      0.47s WALL (      13 calls)
     newd         :      0.25s CPU      0.38s WALL (      11 calls)
     PAW_pot      :      3.72s CPU      4.33s WALL (      11 calls)
     mix_rho      :      0.03s CPU      0.05s WALL (      10 calls)

     Called by c_bands:
     init_us_2    :      0.21s CPU      0.24s WALL (     920 calls)
     init_us_2:cp :      0.20s CPU      0.24s WALL (     920 calls)
     cegterg      :      5.39s CPU      6.54s WALL (     400 calls)

     Called by sum_band:
     sum_band:wei :      0.00s CPU      0.00s WALL (      10 calls)
     sum_band:loo :      1.35s CPU      1.82s WALL (      10 calls)
     sum_band:buf :      0.01s CPU      0.01s WALL (     400 calls)
     sum_band:ini :      0.09s CPU      0.11s WALL (     400 calls)
     sum_band:cal :      0.14s CPU      0.18s WALL (     400 calls)
     sum_band:bec :      0.00s CPU      0.01s WALL (     400 calls)
     addusdens    :      0.46s CPU      0.59s WALL (      10 calls)
     addusd:skk   :      0.00s CPU      0.00s WALL (      10 calls)
     addusd:dgemm :      0.10s CPU      0.12s WALL (      20 calls)
     addusd:qvan2 :      0.34s CPU      0.44s WALL (      20 calls)

     Called by *egterg:
     cdiaghg      :      0.13s CPU      0.18s WALL (    1219 calls)
     cegterg:over :      0.15s CPU      0.22s WALL (     819 calls)
     cegterg:upda :      0.09s CPU      0.11s WALL (     819 calls)
     cegterg:last :      0.05s CPU      0.05s WALL (     400 calls)
     h_psi        :      4.76s CPU      5.74s WALL (    1259 calls)
     s_psi        :      0.21s CPU      0.26s WALL (    1259 calls)
     g_psi        :      0.05s CPU      0.06s WALL (     819 calls)

     Called by h_psi:
     h_psi:calbec :      0.29s CPU      0.34s WALL (    1259 calls)
     vloc_psi     :      4.22s CPU      5.12s WALL (    1259 calls)
     add_vuspsi   :      0.22s CPU      0.26s WALL (    1259 calls)

     General routines
     calbec       :      0.56s CPU      0.66s WALL (    1859 calls)
     fft          :      0.42s CPU      0.57s WALL (     273 calls)
     ffts         :      0.01s CPU      0.01s WALL (      20 calls)
     fftw         :      4.72s CPU      5.89s WALL (   19050 calls)

     Parallel routines

     PAW routines
     PAW_pot      :      3.72s CPU      4.33s WALL (      11 calls)
     PAW_symme    :      0.01s CPU      0.01s WALL (      21 calls)

     PWSCF        :     13.49s CPU     -0.36s WALL


   This run was terminated on:   6:10:30  19Dec2024            

=------------------------------------------------------------------------------=
   JOB DONE.
=------------------------------------------------------------------------------=
