
     Program BANDS v.7.0 starts on 19Dec2024 at  5:18:38 

     This program is part of the open-source Quantum ESPRESSO suite
     for quantum simulation of materials; please cite
         "P. Giannozzi et al., J. Phys.:Condens. Matter 21 395502 (2009);
         "P. Giannozzi et al., J. Phys.:Condens. Matter 29 465901 (2017);
         "P. Giannozzi et al., J. Chem. Phys. 152 154105 (2020);
          URL http://www.quantum-espresso.org", 
     in publications or presentations arising from this work. More details at
     http://www.quantum-espresso.org/quote

     Parallel version (MPI & OpenMP), running on       2 processor cores
     Number of MPI processes:                 1
     Threads/MPI process:                     2

     MPI processes distributed on     1 nodes
     173 MiB available memory on the printing compute node when the environment starts


     Reading xml data from directory:

     ./outputs/cdte.save/
     file Cd.pbe-n-kjpaw_psl.1.0.0.UPF: wavefunction(s)  5S 4D renormalized
     file Te.pbe-n-kjpaw_psl.1.0.0.UPF: wavefunction(s)  5S 5P renormalized

     IMPORTANT: XC functional enforced from input :
     Exchange-correlation= PBE
                           (   1   4   3   4   0   0   0)
     Any further DFT definition will be discarded
     Please, verify this is what you really want


     G-vector sticks info
     --------------------
     sticks:   dense  smooth     PW     G-vecs:    dense   smooth      PW
     Sum        1069    1069    313                23505    23505    3695

     Using Slab Decomposition

     Reading collected, re-writing distributed wavefunctions
     high-symmetry point:  0.0000 0.0000 0.0000   x coordinate   0.0000
     high-symmetry point:  0.5000-0.2887 0.4082   x coordinate   0.7071
     high-symmetry point:  0.5000 0.0000 0.6124   x coordinate   1.0607
     high-symmetry point:  0.3750 0.2165 0.6001   x coordinate   1.3110
     high-symmetry point:  0.0000 0.0000 0.0000   x coordinate   2.0510
     high-symmetry point:  0.5000 0.2887 0.2041   x coordinate   2.6634
     high-symmetry point:  0.6250-0.0722 0.4082   x coordinate   3.0964
     high-symmetry point:  0.5000 0.0000 0.6124   x coordinate   3.3464
     high-symmetry point:  0.5000 0.2887 0.2041   x coordinate   3.8464
     high-symmetry point:  0.3750 0.2165 0.6001   x coordinate   4.2679
     high-symmetry point:  0.5000-0.2887 0.4082   x coordinate   4.8225

     Plottable bands (eV) written to file cdtebands.dat.gnu
     Bands written to file cdtebands.dat

 **************************************************************************

                    xk=(   0.00000,   0.00000,   0.00000  )

     point group C_3v (3m)  
     there are  3 classes
     the character table:

       E     2C3   3s_v 
A_1    1.00  1.00  1.00
A_2    1.00  1.00 -1.00
E      2.00 -1.00  0.00

     the symmetry operations in each class and the name of the first element:

     E        1
                                                                 
     2C3      2    3
                                                                 
     3s_v     4    5    6
                                                                 

     Band symmetry, C_3v (3m)   point group:

     e(  1 -  1) =     -6.45933  eV     1   --> A_1  L_1       
     e(  2 -  4) =     -3.68850  eV     3   --> A_1  L_1       
     e(  2 -  4) =     -3.68850  eV     3   --> E    L_3       
     e(  5 -  6) =     -3.47624  eV     2   --> E    L_3       
     e(  7 -  9) =      4.35436  eV     3   --> A_1  L_1       
     e(  7 -  9) =      4.35436  eV     3   --> E    L_3       
     e( 10 - 10) =      4.92223  eV     1   --> A_1  L_1       
     e( 11 - 13) =      9.00273  eV     3   --> A_1  L_1       
     e( 11 - 13) =      9.00273  eV     3   --> E    L_3       
     e( 14 - 14) =     11.79460  eV     1   --> A_1  L_1       
     e( 15 - 16) =     13.68788  eV     2   --> E    L_3       

 **************************************************************************

 **************************************************************************

                    xk=(   0.01667,  -0.00962,   0.01361  )

     point group C_s (m)    
     there are  2 classes
     the character table:

       E     s    
A'     1.00  1.00
A''    1.00 -1.00

     the symmetry operations in each class and the name of the first element:

     E        1
                                                                 
     s        2
                                                                 

     Band symmetry, C_s (m)     point group:

     e(  1 -  1) =     -6.45809  eV     1   --> A'             
     e(  2 -  3) =     -3.68817  eV     2   --> A'             
     e(  2 -  3) =     -3.68817  eV     2   --> A''            
     e(  4 -  4) =     -3.68774  eV     1   --> A'             
     e(  5 -  5) =     -3.47635  eV     1   --> A'             
     e(  6 -  6) =     -3.47617  eV     1   --> A''            
     e(  7 -  7) =      4.28829  eV     1   --> A'             
     e(  8 -  9) =      4.34776  eV     2   --> A'             
     e(  8 -  9) =      4.34776  eV     2   --> A''            
     e( 10 - 10) =      4.98935  eV     1   --> A'             
     e( 11 - 11) =      8.98843  eV     1   --> A'             
     e( 12 - 13) =      9.01272  eV     2   --> A'             
     e( 12 - 13) =      9.01272  eV     2   --> A''            
     e( 14 - 14) =     11.81649  eV     1   --> A'             
     e( 15 - 15) =     13.60936  eV     1   --> A'             
     e( 16 - 16) =     13.69040  eV     1   --> A''            

 **************************************************************************

 **************************************************************************

                    xk=(   0.03333,  -0.01925,   0.02722  )

     Band symmetry, C_s (m)     point group:

     e(  1 -  1) =     -6.45438  eV     1   --> A'             
     e(  2 -  3) =     -3.68732  eV     2   --> A'             
     e(  2 -  3) =     -3.68732  eV     2   --> A''            
     e(  4 -  4) =     -3.68548  eV     1   --> A'             
     e(  5 -  5) =     -3.47684  eV     1   --> A'             
     e(  6 -  6) =     -3.47598  eV     1   --> A''            
     e(  7 -  7) =      4.14110  eV     1   --> A'             
     e(  8 -  9) =      4.32816  eV     2   --> A'             
     e(  8 -  9) =      4.32816  eV     2   --> A''            
     e( 10 - 10) =      5.13959  eV     1   --> A'             
     e( 11 - 11) =      8.94698  eV     1   --> A'             
     e( 12 - 13) =      9.04248  eV     2   --> A'             
     e( 12 - 13) =      9.04248  eV     2   --> A''            
     e( 14 - 14) =     11.88052  eV     1   --> A'             
     e( 15 - 15) =     13.42454  eV     1   --> A'             
     e( 16 - 16) =     13.69796  eV     1   --> A''            

 **************************************************************************

 **************************************************************************

                    xk=(   0.05000,  -0.02887,   0.04082  )

     Band symmetry, C_s (m)     point group:

     e(  1 -  1) =     -6.44824  eV     1   --> A'             
     e(  2 -  3) =     -3.68575  eV     2   --> A'             
     e(  2 -  3) =     -3.68575  eV     2   --> A''            
     e(  4 -  4) =     -3.68171  eV     1   --> A'             
     e(  5 -  5) =     -3.47734  eV     1   --> A'             
     e(  6 -  6) =     -3.47564  eV     1   --> A''            
     e(  7 -  7) =      3.96553  eV     1   --> A'             
     e(  8 -  9) =      4.29620  eV     2   --> A'             
     e(  8 -  9) =      4.29620  eV     2   --> A''            
     e( 10 - 10) =      5.31992  eV     1   --> A'             
     e( 11 - 11) =      8.88211  eV     1   --> A'             
     e( 12 - 13) =      9.09140  eV     2   --> A'             
     e( 12 - 13) =      9.09140  eV     2   --> A''            
     e( 14 - 14) =     11.98219  eV     1   --> A'             
     e( 15 - 15) =     13.19714  eV     1   --> A'             
     e( 16 - 16) =     13.71054  eV     1   --> A''            

 **************************************************************************

 **************************************************************************

                    xk=(   0.06667,  -0.03849,   0.05443  )

     Band symmetry, C_s (m)     point group:

     e(  1 -  1) =     -6.43975  eV     1   --> A'             
     e(  2 -  3) =     -3.68343  eV     2   --> A'             
     e(  2 -  3) =     -3.68343  eV     2   --> A''            
     e(  4 -  4) =     -3.67642  eV     1   --> A'             
     e(  5 -  5) =     -3.47797  eV     1   --> A'             
     e(  6 -  6) =     -3.47513  eV     1   --> A''            
     e(  7 -  7) =      3.78033  eV     1   --> A'             
     e(  8 -  9) =      4.25283  eV     2   --> A'             
     e(  8 -  9) =      4.25283  eV     2   --> A''            
     e( 10 - 10) =      5.51109  eV     1   --> A'             
     e( 11 - 11) =      8.79885  eV     1   --> A'             
     e( 12 - 13) =      9.15853  eV     2   --> A'             
     e( 12 - 13) =      9.15853  eV     2   --> A''            
     e( 14 - 14) =     12.11398  eV     1   --> A'             
     e( 15 - 15) =     12.95902  eV     1   --> A'             
     e( 16 - 16) =     13.72813  eV     1   --> A''            

 **************************************************************************

 **************************************************************************

                    xk=(   0.08333,  -0.04811,   0.06804  )

     Band symmetry, C_s (m)     point group:

     e(  1 -  1) =     -6.42898  eV     1   --> A'             
     e(  2 -  3) =     -3.68052  eV     2   --> A'             
     e(  2 -  3) =     -3.68052  eV     2   --> A''            
     e(  4 -  4) =     -3.66943  eV     1   --> A'             
     e(  5 -  5) =     -3.47881  eV     1   --> A'             
     e(  6 -  6) =     -3.47449  eV     1   --> A''            
     e(  7 -  7) =      3.59200  eV     1   --> A'             
     e(  8 -  9) =      4.19927  eV     2   --> A'             
     e(  8 -  9) =      4.19927  eV     2   --> A''            
     e( 10 - 10) =      5.70585  eV     1   --> A'             
     e( 11 - 11) =      8.70238  eV     1   --> A'             
     e( 12 - 13) =      9.24267  eV     2   --> A'             
     e( 12 - 13) =      9.24267  eV     2   --> A''            
     e( 14 - 14) =     12.25941  eV     1   --> A'             
     e( 15 - 15) =     12.73476  eV     1   --> A'             
     e( 16 - 16) =     13.75072  eV     1   --> A''            

 **************************************************************************

 **************************************************************************

                    xk=(   0.10000,  -0.05774,   0.08165  )

     Band symmetry, C_s (m)     point group:

     e(  1 -  1) =     -6.41607  eV     1   --> A'             
     e(  2 -  3) =     -3.67701  eV     2   --> A'             
     e(  2 -  3) =     -3.67701  eV     2   --> A''            
     e(  4 -  4) =     -3.66081  eV     1   --> A'             
     e(  5 -  5) =     -3.47988  eV     1   --> A'             
     e(  6 -  6) =     -3.47375  eV     1   --> A''            
     e(  7 -  7) =      3.40327  eV     1   --> A'             
     e(  8 -  9) =      4.13688  eV     2   --> A'             
     e(  8 -  9) =      4.13688  eV     2   --> A''            
     e( 10 - 10) =      5.90046  eV     1   --> A'             
     e( 11 - 11) =      8.59738  eV     1   --> A'             
     e( 12 - 13) =      9.34244  eV     2   --> A'             
     e( 12 - 13) =      9.34244  eV     2   --> A''            
     e( 14 - 14) =     12.32517  eV     1   --> A'             
     e( 15 - 15) =     12.62021  eV     1   --> A'             
     e( 16 - 16) =     13.77828  eV     1   --> A''            

 **************************************************************************

 **************************************************************************

                    xk=(   0.11667,  -0.06736,   0.09526  )

     Band symmetry, C_s (m)     point group:

     e(  1 -  1) =     -6.40115  eV     1   --> A'             
     e(  2 -  3) =     -3.67285  eV     2   --> A'             
     e(  2 -  3) =     -3.67285  eV     2   --> A''            
     e(  4 -  4) =     -3.65056  eV     1   --> A'             
     e(  5 -  5) =     -3.48084  eV     1   --> A'             
     e(  6 -  6) =     -3.47277  eV     1   --> A''            
     e(  7 -  7) =      3.21550  eV     1   --> A'             
     e(  8 -  9) =      4.06714  eV     2   --> A'             
     e(  8 -  9) =      4.06714  eV     2   --> A''            
     e( 10 - 10) =      6.09224  eV     1   --> A'             
     e( 11 - 11) =      8.48781  eV     1   --> A'             
     e( 12 - 13) =      9.45642  eV     2   --> A'             
     e( 12 - 13) =      9.45642  eV     2   --> A''            
     e( 14 - 14) =     12.17352  eV     1   --> A'             
     e( 15 - 15) =     12.75400  eV     1   --> A'             
     e( 16 - 16) =     13.81078  eV     1   --> A''            

 **************************************************************************

 **************************************************************************

                    xk=(   0.13333,  -0.07698,   0.10887  )

     Band symmetry, C_s (m)     point group:

     e(  1 -  1) =     -6.38439  eV     1   --> A'             
     e(  2 -  3) =     -3.66835  eV     2   --> A'             
     e(  2 -  3) =     -3.66835  eV     2   --> A''            
     e(  4 -  4) =     -3.63874  eV     1   --> A'             
     e(  5 -  5) =     -3.48171  eV     1   --> A'             
     e(  6 -  6) =     -3.47185  eV     1   --> A''            
     e(  7 -  7) =      3.02948  eV     1   --> A'             
     e(  8 -  9) =      3.99146  eV     2   --> A'             
     e(  8 -  9) =      3.99146  eV     2   --> A''            
     e( 10 - 10) =      6.27868  eV     1   --> A'             
     e( 11 - 11) =      8.37686  eV     1   --> A'             
     e( 12 - 13) =      9.58318  eV     2   --> A'             
     e( 12 - 13) =      9.58318  eV     2   --> A''            
     e( 14 - 14) =     11.97360  eV     1   --> A'             
     e( 15 - 15) =     12.96746  eV     1   --> A'             
     e( 16 - 16) =     13.84814  eV     1   --> A''            

 **************************************************************************

 **************************************************************************

                    xk=(   0.15000,  -0.08660,   0.12247  )

     Band symmetry, C_s (m)     point group:

     e(  1 -  1) =     -6.36599  eV     1   --> A'             
     e(  2 -  3) =     -3.66323  eV     2   --> A'             
     e(  2 -  3) =     -3.66323  eV     2   --> A''            
     e(  4 -  4) =     -3.62549  eV     1   --> A'             
     e(  5 -  5) =     -3.48229  eV     1   --> A'             
     e(  6 -  6) =     -3.47076  eV     1   --> A''            
     e(  7 -  7) =      2.84574  eV     1   --> A'             
     e(  8 -  9) =      3.91128  eV     2   --> A'             
     e(  8 -  9) =      3.91128  eV     2   --> A''            
     e( 10 - 10) =      6.45712  eV     1   --> A'             
     e( 11 - 11) =      8.26716  eV     1   --> A'             
     e( 12 - 13) =      9.72136  eV     2   --> A'             
     e( 12 - 13) =      9.72136  eV     2   --> A''            
     e( 14 - 14) =     11.78119  eV     1   --> A'             
     e( 15 - 15) =     13.20553  eV     1   --> A'             
     e( 16 - 16) =     13.89033  eV     1   --> A''            

 **************************************************************************

 **************************************************************************

                    xk=(   0.16667,  -0.09623,   0.13608  )

     Band symmetry, C_s (m)     point group:

     e(  1 -  1) =     -6.34614  eV     1   --> A'             
     e(  2 -  3) =     -3.65762  eV     2   --> A'             
     e(  2 -  3) =     -3.65762  eV     2   --> A''            
     e(  4 -  4) =     -3.61087  eV     1   --> A'             
     e(  5 -  5) =     -3.48223  eV     1   --> A'             
     e(  6 -  6) =     -3.46952  eV     1   --> A''            
     e(  7 -  7) =      2.66468  eV     1   --> A'             
     e(  8 -  9) =      3.82790  eV     2   --> A'             
     e(  8 -  9) =      3.82790  eV     2   --> A''            
     e( 10 - 10) =      6.62454  eV     1   --> A'             
     e( 11 - 11) =      8.16091  eV     1   --> A'             
     e( 12 - 13) =      9.86967  eV     2   --> A'             
     e( 12 - 13) =      9.86967  eV     2   --> A''            
     e( 14 - 14) =     11.60682  eV     1   --> A'             
     e( 15 - 15) =     13.45861  eV     1   --> A'             
     e( 16 - 16) =     13.93728  eV     1   --> A''            

 **************************************************************************

 **************************************************************************

                    xk=(   0.18333,  -0.10585,   0.14969  )

     Band symmetry, C_s (m)     point group:

     e(  1 -  1) =     -6.32508  eV     1   --> A'             
     e(  2 -  3) =     -3.65155  eV     2   --> A'             
     e(  2 -  3) =     -3.65155  eV     2   --> A''            
     e(  4 -  4) =     -3.59539  eV     1   --> A'             
     e(  5 -  5) =     -3.48109  eV     1   --> A'             
     e(  6 -  6) =     -3.46818  eV     1   --> A''            
     e(  7 -  7) =      2.48664  eV     1   --> A'             
     e(  8 -  9) =      3.74255  eV     2   --> A'             
     e(  8 -  9) =      3.74255  eV     2   --> A''            
     e( 10 - 10) =      6.77743  eV     1   --> A'             
     e( 11 - 11) =      8.06006  eV     1   --> A'             
     e( 12 - 13) =     10.02695  eV     2   --> A'             
     e( 12 - 13) =     10.02695  eV     2   --> A''            
     e( 14 - 14) =     11.45568  eV     1   --> A'             
     e( 15 - 15) =     13.72278  eV     1   --> A'             
     e( 16 - 16) =     13.98888  eV     1   --> A''            

 **************************************************************************

 **************************************************************************

                    xk=(   0.20000,  -0.11547,   0.16330  )

     Band symmetry, C_s (m)     point group:

     e(  1 -  1) =     -6.30306  eV     1   --> A'             
     e(  2 -  3) =     -3.64528  eV     2   --> A'             
     e(  2 -  3) =     -3.64528  eV     2   --> A''            
     e(  4 -  4) =     -3.57997  eV     1   --> A'             
     e(  5 -  5) =     -3.47805  eV     1   --> A'             
     e(  6 -  6) =     -3.46688  eV     1   --> A''            
     e(  7 -  7) =      2.31192  eV     1   --> A'             
     e(  8 -  9) =      3.65630  eV     2   --> A'             
     e(  8 -  9) =      3.65630  eV     2   --> A''            
     e( 10 - 10) =      6.91184  eV     1   --> A'             
     e( 11 - 11) =      7.96647  eV     1   --> A'             
     e( 12 - 13) =     10.19213  eV     2   --> A'             
     e( 12 - 13) =     10.19213  eV     2   --> A''            
     e( 14 - 14) =     11.33183  eV     1   --> A'             
     e( 15 - 15) =     13.99536  eV     1   --> A'             
     e( 16 - 16) =     14.04501  eV     1   --> A''            

 **************************************************************************

 **************************************************************************

                    xk=(   0.21667,  -0.12509,   0.17691  )

     Band symmetry, C_s (m)     point group:

     e(  1 -  1) =     -6.28033  eV     1   --> A'             
     e(  2 -  3) =     -3.63863  eV     2   --> A'             
     e(  2 -  3) =     -3.63863  eV     2   --> A''            
     e(  4 -  4) =     -3.56574  eV     1   --> A'             
     e(  5 -  5) =     -3.47169  eV     1   --> A'             
     e(  6 -  6) =     -3.46552  eV     1   --> A''            
     e(  7 -  7) =      2.14085  eV     1   --> A'             
     e(  8 -  9) =      3.57017  eV     2   --> A'             
     e(  8 -  9) =      3.57017  eV     2   --> A''            
     e( 10 - 10) =      7.02351  eV     1   --> A'             
     e( 11 - 11) =      7.88203  eV     1   --> A'             
     e( 12 - 13) =     10.36426  eV     2   --> A'             
     e( 12 - 13) =     10.36426  eV     2   --> A''            
     e( 14 - 14) =     11.23882  eV     1   --> A'             
     e( 15 - 15) =     14.10553  eV     1   --> A''            
     e( 16 - 16) =     14.27397  eV     1   --> A'             

 **************************************************************************

 **************************************************************************

                    xk=(   0.23333,  -0.13472,   0.19052  )

     Band symmetry, C_s (m)     point group:

     e(  1 -  1) =     -6.25716  eV     1   --> A'             
     e(  2 -  3) =     -3.63184  eV     2   --> A'             
     e(  2 -  3) =     -3.63184  eV     2   --> A''            
     e(  4 -  4) =     -3.55431  eV     1   --> A'             
     e(  5 -  5) =     -3.46427  eV     1   --> A''            
     e(  6 -  6) =     -3.46043  eV     1   --> A'             
     e(  7 -  7) =      1.97379  eV     1   --> A'             
     e(  8 -  9) =      3.48504  eV     2   --> A'             
     e(  8 -  9) =      3.48504  eV     2   --> A''            
     e( 10 - 10) =      7.10837  eV     1   --> A'             
     e( 11 - 11) =      7.80851  eV     1   --> A'             
     e( 12 - 13) =     10.54248  eV     2   --> A'             
     e( 12 - 13) =     10.54248  eV     2   --> A''            
     e( 14 - 14) =     11.17962  eV     1   --> A'             
     e( 15 - 15) =     14.17025  eV     1   --> A''            
     e( 16 - 16) =     14.55613  eV     1   --> A'             

 **************************************************************************

 **************************************************************************

                    xk=(   0.25000,  -0.14434,   0.20412  )

     Band symmetry, C_s (m)     point group:

     e(  1 -  1) =     -6.23381  eV     1   --> A'             
     e(  2 -  3) =     -3.62489  eV     2   --> A'             
     e(  2 -  3) =     -3.62489  eV     2   --> A''            
     e(  4 -  4) =     -3.54674  eV     1   --> A'             
     e(  5 -  5) =     -3.46286  eV     1   --> A''            
     e(  6 -  6) =     -3.44341  eV     1   --> A'             
     e(  7 -  7) =      1.81110  eV     1   --> A'             
     e(  8 -  9) =      3.40171  eV     2   --> A'             
     e(  8 -  9) =      3.40171  eV     2   --> A''            
     e( 10 - 10) =      7.16369  eV     1   --> A'             
     e( 11 - 11) =      7.74702  eV     1   --> A'             
     e( 12 - 13) =     10.72601  eV     2   --> A'             
     e( 12 - 13) =     10.72601  eV     2   --> A''            
     e( 14 - 14) =     11.15621  eV     1   --> A'             
     e( 15 - 15) =     14.23895  eV     1   --> A''            
     e( 16 - 16) =     14.83897  eV     1   --> A'             

 **************************************************************************

 **************************************************************************

                    xk=(   0.26667,  -0.15396,   0.21773  )

     Band symmetry, C_s (m)     point group:

     e(  1 -  1) =     -6.21056  eV     1   --> A'             
     e(  2 -  3) =     -3.61786  eV     2   --> A'             
     e(  2 -  3) =     -3.61786  eV     2   --> A''            
     e(  4 -  4) =     -3.54261  eV     1   --> A'             
     e(  5 -  5) =     -3.46145  eV     1   --> A''            
     e(  6 -  6) =     -3.42085  eV     1   --> A'             
     e(  7 -  7) =      1.65325  eV     1   --> A'             
     e(  8 -  9) =      3.32089  eV     2   --> A'             
     e(  8 -  9) =      3.32089  eV     2   --> A''            
     e( 10 - 10) =      7.18970  eV     1   --> A'             
     e( 11 - 11) =      7.69681  eV     1   --> A'             
     e( 12 - 13) =     10.91410  eV     2   --> A'             
     e( 12 - 13) =     10.91410  eV     2   --> A''            
     e( 14 - 14) =     11.16918  eV     1   --> A'             
     e( 15 - 15) =     14.31134  eV     1   --> A''            
     e( 16 - 16) =     15.11900  eV     1   --> A'             

 **************************************************************************

 **************************************************************************

                    xk=(   0.28333,  -0.16358,   0.23134  )

     Band symmetry, C_s (m)     point group:

     e(  1 -  1) =     -6.18767  eV     1   --> A'             
     e(  2 -  3) =     -3.61092  eV     2   --> A'             
     e(  2 -  3) =     -3.61092  eV     2   --> A''            
     e(  4 -  4) =     -3.54104  eV     1   --> A'             
     e(  5 -  5) =     -3.46008  eV     1   --> A''            
     e(  6 -  6) =     -3.39396  eV     1   --> A'             
     e(  7 -  7) =      1.50072  eV     1   --> A'             
     e(  8 -  9) =      3.24321  eV     2   --> A'             
     e(  8 -  9) =      3.24321  eV     2   --> A''            
     e( 10 - 10) =      7.19083  eV     1   --> A'             
     e( 11 - 11) =      7.65436  eV     1   --> A'             
     e( 12 - 13) =     11.10603  eV     2   --> A'             
     e( 12 - 13) =     11.10603  eV     2   --> A''            
     e( 14 - 14) =     11.21740  eV     1   --> A'             
     e( 15 - 15) =     14.38705  eV     1   --> A''            
     e( 16 - 16) =     15.39173  eV     1   --> A'             

 **************************************************************************

 **************************************************************************

                    xk=(   0.30000,  -0.17321,   0.24495  )

     Band symmetry, C_s (m)     point group:

     e(  1 -  1) =     -6.16541  eV     1   --> A'             
     e(  2 -  3) =     -3.60402  eV     2   --> A'             
     e(  2 -  3) =     -3.60402  eV     2   --> A''            
     e(  4 -  4) =     -3.54090  eV     1   --> A'             
     e(  5 -  5) =     -3.45874  eV     1   --> A''            
     e(  6 -  6) =     -3.36385  eV     1   --> A'             
     e(  7 -  7) =      1.35409  eV     1   --> A'             
     e(  8 -  9) =      3.16924  eV     2   --> A'             
     e(  8 -  9) =      3.16924  eV     2   --> A''            
     e( 10 - 10) =      7.17454  eV     1   --> A'             
     e( 11 - 11) =      7.61450  eV     1   --> A'             
     e( 12 - 12) =     11.29814  eV     1   --> A'             
     e( 13 - 14) =     11.30108  eV     2   --> A'             
     e( 13 - 14) =     11.30108  eV     2   --> A''            
     e( 15 - 15) =     14.46563  eV     1   --> A''            
     e( 16 - 16) =     15.65132  eV     1   --> A'             

 **************************************************************************

 **************************************************************************

                    xk=(   0.31667,  -0.18283,   0.25856  )

     Band symmetry, C_s (m)     point group:

     e(  1 -  1) =     -6.14401  eV     1   --> A'             
     e(  2 -  3) =     -3.59722  eV     2   --> A'             
     e(  2 -  3) =     -3.59722  eV     2   --> A''            
     e(  4 -  4) =     -3.54195  eV     1   --> A'             
     e(  5 -  5) =     -3.45746  eV     1   --> A''            
     e(  6 -  6) =     -3.33147  eV     1   --> A'             
     e(  7 -  7) =      1.21400  eV     1   --> A'             
     e(  8 -  9) =      3.09948  eV     2   --> A'             
     e(  8 -  9) =      3.09948  eV     2   --> A''            
     e( 10 - 10) =      7.14850  eV     1   --> A'             
     e( 11 - 11) =      7.57289  eV     1   --> A'             
     e( 12 - 12) =     11.40731  eV     1   --> A'             
     e( 13 - 14) =     11.49844  eV     2   --> A'             
     e( 13 - 14) =     11.49844  eV     2   --> A''            
     e( 15 - 15) =     14.54652  eV     1   --> A''            
     e( 16 - 16) =     15.89007  eV     1   --> A'             

 **************************************************************************

 **************************************************************************

                    xk=(   0.33333,  -0.19245,   0.27217  )

     Band symmetry, C_s (m)     point group:

     e(  1 -  1) =     -6.12371  eV     1   --> A'             
     e(  2 -  3) =     -3.59069  eV     2   --> A'             
     e(  2 -  3) =     -3.59069  eV     2   --> A''            
     e(  4 -  4) =     -3.54337  eV     1   --> A'             
     e(  5 -  5) =     -3.45621  eV     1   --> A''            
     e(  6 -  6) =     -3.29764  eV     1   --> A'             
     e(  7 -  7) =      1.08119  eV     1   --> A'             
     e(  8 -  9) =      3.03438  eV     2   --> A'             
     e(  8 -  9) =      3.03438  eV     2   --> A''            
     e( 10 - 10) =      7.11870  eV     1   --> A'             
     e( 11 - 11) =      7.52743  eV     1   --> A'             
     e( 12 - 12) =     11.54000  eV     1   --> A'             
     e( 13 - 14) =     11.69720  eV     2   --> A'             
     e( 13 - 14) =     11.69720  eV     2   --> A''            
     e( 15 - 15) =     14.62902  eV     1   --> A''            
     e( 16 - 16) =     16.09792  eV     1   --> A'             

 **************************************************************************

 **************************************************************************

                    xk=(   0.35000,  -0.20207,   0.28577  )

     Band symmetry, C_s (m)     point group:

     e(  1 -  1) =     -6.10473  eV     1   --> A'             
     e(  2 -  3) =     -3.58449  eV     2   --> A'             
     e(  2 -  3) =     -3.58449  eV     2   --> A''            
     e(  4 -  4) =     -3.54506  eV     1   --> A'             
     e(  5 -  5) =     -3.45502  eV     1   --> A''            
     e(  6 -  6) =     -3.26310  eV     1   --> A'             
     e(  7 -  7) =      0.95647  eV     1   --> A'             
     e(  8 -  9) =      2.97434  eV     2   --> A'             
     e(  8 -  9) =      2.97434  eV     2   --> A''            
     e( 10 - 10) =      7.08915  eV     1   --> A'             
     e( 11 - 11) =      7.47805  eV     1   --> A'             
     e( 12 - 12) =     11.69089  eV     1   --> A'             
     e( 13 - 14) =     11.89624  eV     2   --> A'             
     e( 13 - 14) =     11.89624  eV     2   --> A''            
     e( 15 - 15) =     14.71222  eV     1   --> A''            
     e( 16 - 16) =     16.26236  eV     1   --> A'             

 **************************************************************************

 **************************************************************************

                    xk=(   0.36667,  -0.21170,   0.29938  )

     Band symmetry, C_s (m)     point group:

     e(  1 -  1) =     -6.08727  eV     1   --> A'             
     e(  2 -  3) =     -3.57888  eV     2   --> A'             
     e(  2 -  3) =     -3.57888  eV     2   --> A''            
     e(  4 -  4) =     -3.54686  eV     1   --> A'             
     e(  5 -  5) =     -3.45400  eV     1   --> A''            
     e(  6 -  6) =     -3.22871  eV     1   --> A'             
     e(  7 -  7) =      0.84075  eV     1   --> A'             
     e(  8 -  9) =      2.91970  eV     2   --> A'             
     e(  8 -  9) =      2.91970  eV     2   --> A''            
     e( 10 - 10) =      7.06235  eV     1   --> A'             
     e( 11 - 11) =      7.42584  eV     1   --> A'             
     e( 12 - 12) =     11.85448  eV     1   --> A'             
     e( 13 - 14) =     12.09411  eV     2   --> A'             
     e( 13 - 14) =     12.09411  eV     2   --> A''            
     e( 15 - 15) =     14.79501  eV     1   --> A''            
     e( 16 - 16) =     16.37009  eV     1   --> A'             

 **************************************************************************

 **************************************************************************

                    xk=(   0.38333,  -0.22132,   0.31299  )

     Band symmetry, C_s (m)     point group:

     e(  1 -  1) =     -6.07148  eV     1   --> A'             
     e(  2 -  3) =     -3.57356  eV     2   --> A'             
     e(  2 -  3) =     -3.57356  eV     2   --> A''            
     e(  4 -  4) =     -3.54838  eV     1   --> A'             
     e(  5 -  5) =     -3.45300  eV     1   --> A''            
     e(  6 -  6) =     -3.19514  eV     1   --> A'             
     e(  7 -  7) =      0.73501  eV     1   --> A'             
     e(  8 -  9) =      2.87078  eV     2   --> A'             
     e(  8 -  9) =      2.87078  eV     2   --> A''            
     e( 10 - 10) =      7.03986  eV     1   --> A'             
     e( 11 - 11) =      7.37241  eV     1   --> A'             
     e( 12 - 12) =     12.02519  eV     1   --> A'             
     e( 13 - 14) =     12.28890  eV     2   --> A'             
     e( 13 - 14) =     12.28890  eV     2   --> A''            
     e( 15 - 15) =     14.87602  eV     1   --> A''            
     e( 16 - 16) =     16.41238  eV     1   --> A'             

 **************************************************************************

 **************************************************************************

                    xk=(   0.40000,  -0.23094,   0.32660  )

     Band symmetry, C_s (m)     point group:

     e(  1 -  1) =     -6.05751  eV     1   --> A'             
     e(  2 -  3) =     -3.56879  eV     2   --> A'             
     e(  2 -  3) =     -3.56879  eV     2   --> A''            
     e(  4 -  4) =     -3.55007  eV     1   --> A'             
     e(  5 -  5) =     -3.45211  eV     1   --> A''            
     e(  6 -  6) =     -3.16334  eV     1   --> A'             
     e(  7 -  7) =      0.64030  eV     1   --> A'             
     e(  8 -  9) =      2.82785  eV     2   --> A'             
     e(  8 -  9) =      2.82785  eV     2   --> A''            
     e( 10 - 10) =      7.02259  eV     1   --> A'             
     e( 11 - 11) =      7.31944  eV     1   --> A'             
     e( 12 - 12) =     12.19714  eV     1   --> A'             
     e( 13 - 14) =     12.47796  eV     2   --> A'             
     e( 13 - 14) =     12.47796  eV     2   --> A''            
     e( 15 - 15) =     14.95355  eV     1   --> A''            
     e( 16 - 16) =     16.39195  eV     1   --> A'             

 **************************************************************************

 **************************************************************************

                    xk=(   0.41667,  -0.24056,   0.34021  )

     Band symmetry, C_s (m)     point group:

     e(  1 -  1) =     -6.04550  eV     1   --> A'             
     e(  2 -  3) =     -3.56477  eV     2   --> A'             
     e(  2 -  3) =     -3.56477  eV     2   --> A''            
     e(  4 -  4) =     -3.55182  eV     1   --> A'             
     e(  5 -  5) =     -3.45146  eV     1   --> A''            
     e(  6 -  6) =     -3.13433  eV     1   --> A'             
     e(  7 -  7) =      0.55769  eV     1   --> A'             
     e(  8 -  9) =      2.79113  eV     2   --> A'             
     e(  8 -  9) =      2.79113  eV     2   --> A''            
     e( 10 - 10) =      7.01106  eV     1   --> A'             
     e( 11 - 11) =      7.26850  eV     1   --> A'             
     e( 12 - 12) =     12.36401  eV     1   --> A'             
     e( 13 - 14) =     12.65762  eV     2   --> A'             
     e( 13 - 14) =     12.65762  eV     2   --> A''            
     e( 15 - 15) =     15.02559  eV     1   --> A''            
     e( 16 - 16) =     16.32399  eV     1   --> A'             

 **************************************************************************

 **************************************************************************

                    xk=(   0.43333,  -0.25019,   0.35382  )

     Band symmetry, C_s (m)     point group:

     e(  1 -  1) =     -6.03553  eV     1   --> A'             
     e(  2 -  3) =     -3.56120  eV     2   --> A'             
     e(  2 -  3) =     -3.56120  eV     2   --> A''            
     e(  4 -  4) =     -3.55305  eV     1   --> A'             
     e(  5 -  5) =     -3.45081  eV     1   --> A''            
     e(  6 -  6) =     -3.10886  eV     1   --> A'             
     e(  7 -  7) =      0.48826  eV     1   --> A'             
     e(  8 -  9) =      2.76083  eV     2   --> A'             
     e(  8 -  9) =      2.76083  eV     2   --> A''            
     e( 10 - 10) =      7.00545  eV     1   --> A'             
     e( 11 - 11) =      7.22105  eV     1   --> A'             
     e( 12 - 12) =     12.51867  eV     1   --> A'             
     e( 13 - 14) =     12.82280  eV     2   --> A'             
     e( 13 - 14) =     12.82280  eV     2   --> A''            
     e( 15 - 15) =     15.08979  eV     1   --> A''            
     e( 16 - 16) =     16.22999  eV     1   --> A'             

 **************************************************************************

 **************************************************************************

                    xk=(   0.45000,  -0.25981,   0.36742  )

     Band symmetry, C_s (m)     point group:

     e(  1 -  1) =     -6.02769  eV     1   --> A'             
     e(  2 -  3) =     -3.55843  eV     2   --> A'             
     e(  2 -  3) =     -3.55843  eV     2   --> A''            
     e(  4 -  4) =     -3.55406  eV     1   --> A'             
     e(  5 -  5) =     -3.45040  eV     1   --> A''            
     e(  6 -  6) =     -3.08793  eV     1   --> A'             
     e(  7 -  7) =      0.43302  eV     1   --> A'             
     e(  8 -  9) =      2.73711  eV     2   --> A'             
     e(  8 -  9) =      2.73711  eV     2   --> A''            
     e( 10 - 10) =      7.00556  eV     1   --> A'             
     e( 11 - 11) =      7.17852  eV     1   --> A'             
     e( 12 - 12) =     12.65306  eV     1   --> A'             
     e( 13 - 14) =     12.96657  eV     2   --> A'             
     e( 13 - 14) =     12.96657  eV     2   --> A''            
     e( 15 - 15) =     15.14359  eV     1   --> A''            
     e( 16 - 16) =     16.12867  eV     1   -->   ?

 **************************************************************************

 **************************************************************************

                    xk=(   0.46667,  -0.26943,   0.38103  )

     Band symmetry, C_s (m)     point group:

     e(  1 -  1) =     -6.02206  eV     1   --> A'             
     e(  2 -  3) =     -3.55651  eV     2   --> A'             
     e(  2 -  3) =     -3.55651  eV     2   --> A''            
     e(  4 -  4) =     -3.55477  eV     1   --> A'             
     e(  5 -  5) =     -3.45008  eV     1   --> A''            
     e(  6 -  6) =     -3.07237  eV     1   --> A'             
     e(  7 -  7) =      0.39285  eV     1   --> A'             
     e(  8 -  9) =      2.72007  eV     2   --> A'             
     e(  8 -  9) =      2.72007  eV     2   --> A''            
     e( 10 - 10) =      7.01052  eV     1   --> A'             
     e( 11 - 11) =      7.14267  eV     1   --> A'             
     e( 12 - 12) =     12.75836  eV     1   --> A'             
     e( 13 - 14) =     13.08015  eV     2   --> A'             
     e( 13 - 14) =     13.08015  eV     2   --> A''            
     e( 15 - 15) =     15.18441  eV     1   --> A''            
     e( 16 - 16) =     15.98960  eV     1   -->   ?

 **************************************************************************

 **************************************************************************

                    xk=(   0.48333,  -0.27905,   0.39464  )

     Band symmetry, C_s (m)     point group:

     e(  1 -  1) =     -6.01867  eV     1   --> A'             
     e(  2 -  3) =     -3.55538  eV     2   --> A'             
     e(  2 -  3) =     -3.55538  eV     2   --> A''            
     e(  4 -  4) =     -3.55525  eV     1   --> A'             
     e(  5 -  5) =     -3.44986  eV     1   --> A''            
     e(  6 -  6) =     -3.06283  eV     1   --> A'             
     e(  7 -  7) =      0.36845  eV     1   --> A'             
     e(  8 -  9) =      2.70981  eV     2   --> A'             
     e(  8 -  9) =      2.70981  eV     2   --> A''            
     e( 10 - 10) =      7.01783  eV     1   --> A'             
     e( 11 - 11) =      7.11658  eV     1   --> A'             
     e( 12 - 12) =     12.82599  eV     1   --> A'             
     e( 13 - 14) =     13.15384  eV     2   --> A'             
     e( 13 - 14) =     13.15384  eV     2   --> A''            
     e( 15 - 15) =     15.20997  eV     1   --> A''            
     e( 16 - 16) =     15.90060  eV     1   -->   ?

 **************************************************************************

 **************************************************************************

                    xk=(   0.50000,  -0.28868,   0.40825  )

     Band symmetry, C_s (m)     point group:

     e(  1 -  1) =     -6.01754  eV     1   --> A'             
     e(  2 -  2) =     -3.55555  eV     1   --> A'             
     e(  3 -  4) =     -3.55498  eV     2   --> A'             
     e(  3 -  4) =     -3.55498  eV     2   --> A''            
     e(  5 -  5) =     -3.44978  eV     1   --> A''            
     e(  6 -  6) =     -3.05957  eV     1   --> A'             
     e(  7 -  7) =      0.36026  eV     1   --> A'             
     e(  8 -  9) =      2.70638  eV     2   --> A'             
     e(  8 -  9) =      2.70638  eV     2   --> A''            
     e( 10 - 10) =      7.02180  eV     1   --> A'             
     e( 11 - 11) =      7.10631  eV     1   --> A'             
     e( 12 - 12) =     12.84936  eV     1   --> A'             
     e( 13 - 14) =     13.17949  eV     2   --> A'             
     e( 13 - 14) =     13.17949  eV     2   --> A''            
     e( 15 - 15) =     15.21868  eV     1   --> A''            
     e( 16 - 16) =     15.86985  eV     1   -->   ?

 **************************************************************************

 **************************************************************************

                    xk=(   0.50000,  -0.27905,   0.41505  )

     point group C_1 (1)    
     there are  1 classes
     the character table:

       E    
A      1.00

     the symmetry operations in each class and the name of the first element:

     E        1
                                                                 

     Band symmetry, C_1 (1)     point group:

     e(  1 -  1) =     -6.01754  eV     1   --> A              
     e(  2 -  2) =     -3.55701  eV     1   --> A              
     e(  3 -  3) =     -3.55508  eV     1   --> A              
     e(  4 -  4) =     -3.55345  eV     1   --> A              
     e(  5 -  5) =     -3.44982  eV     1   --> A              
     e(  6 -  6) =     -3.05939  eV     1   --> A              
     e(  7 -  7) =      0.36054  eV     1   --> A              
     e(  8 -  8) =      2.70515  eV     1   --> A              
     e(  9 -  9) =      2.70552  eV     1   --> A              
     e( 10 - 10) =      7.02467  eV     1   --> A              
     e( 11 - 11) =      7.10943  eV     1   --> A              
     e( 12 - 12) =     12.83801  eV     1   --> A              
     e( 13 - 13) =     13.16888  eV     1   --> A              
     e( 14 - 14) =     13.18670  eV     1   --> A              
     e( 15 - 15) =     15.21920  eV     1   --> A              
     e( 16 - 16) =     15.83243  eV     1   --> A              

 **************************************************************************

 **************************************************************************

                    xk=(   0.50000,  -0.26943,   0.42186  )

     Band symmetry, C_1 (1)     point group:

     e(  1 -  1) =     -6.01754  eV     1   --> A              
     e(  2 -  2) =     -3.55866  eV     1   --> A              
     e(  3 -  3) =     -3.55538  eV     1   --> A              
     e(  4 -  4) =     -3.55161  eV     1   --> A              
     e(  5 -  5) =     -3.44988  eV     1   --> A              
     e(  6 -  6) =     -3.05880  eV     1   --> A              
     e(  7 -  7) =      0.36137  eV     1   --> A              
     e(  8 -  8) =      2.70146  eV     1   --> A              
     e(  9 -  9) =      2.70294  eV     1   --> A              
     e( 10 - 10) =      7.03328  eV     1   --> A              
     e( 11 - 11) =      7.11877  eV     1   --> A              
     e( 12 - 12) =     12.80650  eV     1   --> A              
     e( 13 - 13) =     13.13748  eV     1   --> A              
     e( 14 - 14) =     13.20586  eV     1   --> A              
     e( 15 - 15) =     15.22072  eV     1   --> A              
     e( 16 - 16) =     15.77808  eV     1   --> A              

 **************************************************************************

 **************************************************************************

                    xk=(   0.50000,  -0.25981,   0.42866  )

     Band symmetry, C_1 (1)     point group:

     e(  1 -  1) =     -6.01755  eV     1   --> A              
     e(  2 -  2) =     -3.56025  eV     1   --> A              
     e(  3 -  3) =     -3.55585  eV     1   --> A              
     e(  4 -  4) =     -3.54971  eV     1   --> A              
     e(  5 -  5) =     -3.45007  eV     1   --> A              
     e(  6 -  6) =     -3.05784  eV     1   --> A              
     e(  7 -  7) =      0.36276  eV     1   --> A              
     e(  8 -  8) =      2.69538  eV     1   --> A              
     e(  9 -  9) =      2.69868  eV     1   --> A              
     e( 10 - 10) =      7.04755  eV     1   --> A              
     e( 11 - 11) =      7.13430  eV     1   --> A              
     e( 12 - 12) =     12.75987  eV     1   --> A              
     e( 13 - 13) =     13.08654  eV     1   --> A              
     e( 14 - 14) =     13.23209  eV     1   --> A              
     e( 15 - 15) =     15.22316  eV     1   --> A              
     e( 16 - 16) =     15.73017  eV     1   --> A              

 **************************************************************************

 **************************************************************************

                    xk=(   0.50000,  -0.25019,   0.43546  )

     Band symmetry, C_1 (1)     point group:

     e(  1 -  1) =     -6.01757  eV     1   --> A              
     e(  2 -  2) =     -3.56176  eV     1   --> A              
     e(  3 -  3) =     -3.55650  eV     1   --> A              
     e(  4 -  4) =     -3.54773  eV     1   --> A              
     e(  5 -  5) =     -3.45028  eV     1   --> A              
     e(  6 -  6) =     -3.05657  eV     1   --> A              
     e(  7 -  7) =      0.36469  eV     1   --> A              
     e(  8 -  8) =      2.68698  eV     1   --> A              
     e(  9 -  9) =      2.69281  eV     1   --> A              
     e( 10 - 10) =      7.06739  eV     1   --> A              
     e( 11 - 11) =      7.15595  eV     1   --> A              
     e( 12 - 12) =     12.70232  eV     1   --> A              
     e( 13 - 13) =     13.01787  eV     1   --> A              
     e( 14 - 14) =     13.26140  eV     1   --> A              
     e( 15 - 15) =     15.22640  eV     1   --> A              
     e( 16 - 16) =     15.69070  eV     1   --> A              

 **************************************************************************

 **************************************************************************

                    xk=(   0.50000,  -0.24056,   0.44227  )

     Band symmetry, C_1 (1)     point group:

     e(  1 -  1) =     -6.01759  eV     1   --> A              
     e(  2 -  2) =     -3.56325  eV     1   --> A              
     e(  3 -  3) =     -3.55730  eV     1   --> A              
     e(  4 -  4) =     -3.54574  eV     1   --> A              
     e(  5 -  5) =     -3.45061  eV     1   --> A              
     e(  6 -  6) =     -3.05495  eV     1   --> A              
     e(  7 -  7) =      0.36715  eV     1   --> A              
     e(  8 -  8) =      2.67638  eV     1   --> A              
     e(  9 -  9) =      2.68541  eV     1   --> A              
     e( 10 - 10) =      7.09265  eV     1   --> A              
     e( 11 - 11) =      7.18363  eV     1   --> A              
     e( 12 - 12) =     12.63658  eV     1   --> A              
     e( 13 - 13) =     12.93363  eV     1   --> A              
     e( 14 - 14) =     13.29142  eV     1   --> A              
     e( 15 - 15) =     15.23028  eV     1   --> A              
     e( 16 - 16) =     15.65925  eV     1   --> A              

 **************************************************************************

 **************************************************************************

                    xk=(   0.50000,  -0.23094,   0.44907  )

     Band symmetry, C_1 (1)     point group:

     e(  1 -  1) =     -6.01762  eV     1   --> A              
     e(  2 -  2) =     -3.56468  eV     1   --> A              
     e(  3 -  3) =     -3.55826  eV     1   --> A              
     e(  4 -  4) =     -3.54371  eV     1   --> A              
     e(  5 -  5) =     -3.45101  eV     1   --> A              
     e(  6 -  6) =     -3.05304  eV     1   --> A              
     e(  7 -  7) =      0.37012  eV     1   --> A              
     e(  8 -  8) =      2.66373  eV     1   --> A              
     e(  9 -  9) =      2.67660  eV     1   --> A              
     e( 10 - 10) =      7.12317  eV     1   --> A              
     e( 11 - 11) =      7.21722  eV     1   --> A              
     e( 12 - 12) =     12.56429  eV     1   --> A              
     e( 13 - 13) =     12.83609  eV     1   --> A              
     e( 14 - 14) =     13.32087  eV     1   --> A              
     e( 15 - 15) =     15.23466  eV     1   --> A              
     e( 16 - 16) =     15.63494  eV     1   --> A              

 **************************************************************************

 **************************************************************************

                    xk=(   0.50000,  -0.22132,   0.45588  )

     Band symmetry, C_1 (1)     point group:

     e(  1 -  1) =     -6.01768  eV     1   --> A              
     e(  2 -  2) =     -3.56606  eV     1   --> A              
     e(  3 -  3) =     -3.55947  eV     1   --> A              
     e(  4 -  4) =     -3.54165  eV     1   --> A              
     e(  5 -  5) =     -3.45150  eV     1   --> A              
     e(  6 -  6) =     -3.05095  eV     1   --> A              
     e(  7 -  7) =      0.37357  eV     1   --> A              
     e(  8 -  8) =      2.64919  eV     1   --> A              
     e(  9 -  9) =      2.66648  eV     1   --> A              
     e( 10 - 10) =      7.15873  eV     1   --> A              
     e( 11 - 11) =      7.25658  eV     1   --> A              
     e( 12 - 12) =     12.48657  eV     1   --> A              
     e( 13 - 13) =     12.72743  eV     1   --> A              
     e( 14 - 14) =     13.34913  eV     1   --> A              
     e( 15 - 15) =     15.23942  eV     1   --> A              
     e( 16 - 16) =     15.61684  eV     1   --> A              

 **************************************************************************

 **************************************************************************

                    xk=(   0.50000,  -0.21170,   0.46268  )

     Band symmetry, C_1 (1)     point group:

     e(  1 -  1) =     -6.01772  eV     1   --> A              
     e(  2 -  2) =     -3.56737  eV     1   --> A              
     e(  3 -  3) =     -3.56081  eV     1   --> A              
     e(  4 -  4) =     -3.53954  eV     1   --> A              
     e(  5 -  5) =     -3.45207  eV     1   --> A              
     e(  6 -  6) =     -3.04852  eV     1   --> A              
     e(  7 -  7) =      0.37748  eV     1   --> A              
     e(  8 -  8) =      2.63295  eV     1   --> A              
     e(  9 -  9) =      2.65522  eV     1   --> A              
     e( 10 - 10) =      7.19910  eV     1   --> A              
     e( 11 - 11) =      7.30157  eV     1   --> A              
     e( 12 - 12) =     12.40418  eV     1   --> A              
     e( 13 - 13) =     12.60964  eV     1   --> A              
     e( 14 - 14) =     13.37592  eV     1   --> A              
     e( 15 - 15) =     15.24446  eV     1   --> A              
     e( 16 - 16) =     15.60404  eV     1   --> A              

 **************************************************************************

 **************************************************************************

                    xk=(   0.50000,  -0.20207,   0.46949  )

     Band symmetry, C_1 (1)     point group:

     e(  1 -  1) =     -6.01778  eV     1   --> A              
     e(  2 -  2) =     -3.56865  eV     1   --> A              
     e(  3 -  3) =     -3.56235  eV     1   --> A              
     e(  4 -  4) =     -3.53743  eV     1   --> A              
     e(  5 -  5) =     -3.45271  eV     1   --> A              
     e(  6 -  6) =     -3.04591  eV     1   --> A              
     e(  7 -  7) =      0.38181  eV     1   --> A              
     e(  8 -  8) =      2.61523  eV     1   --> A              
     e(  9 -  9) =      2.64295  eV     1   --> A              
     e( 10 - 10) =      7.24401  eV     1   --> A              
     e( 11 - 11) =      7.35201  eV     1   --> A              
     e( 12 - 12) =     12.31778  eV     1   --> A              
     e( 13 - 13) =     12.48447  eV     1   --> A              
     e( 14 - 14) =     13.40114  eV     1   --> A              
     e( 15 - 15) =     15.24968  eV     1   --> A              
     e( 16 - 16) =     15.59575  eV     1   --> A              

 **************************************************************************

 **************************************************************************

                    xk=(   0.50000,  -0.19245,   0.47629  )

     Band symmetry, C_1 (1)     point group:

     e(  1 -  1) =     -6.01784  eV     1   --> A              
     e(  2 -  2) =     -3.56984  eV     1   --> A              
     e(  3 -  3) =     -3.56391  eV     1   --> A              
     e(  4 -  4) =     -3.53525  eV     1   --> A              
     e(  5 -  5) =     -3.45342  eV     1   --> A              
     e(  6 -  6) =     -3.04304  eV     1   --> A              
     e(  7 -  7) =      0.38654  eV     1   --> A              
     e(  8 -  8) =      2.59622  eV     1   --> A              
     e(  9 -  9) =      2.62984  eV     1   --> A              
     e( 10 - 10) =      7.29317  eV     1   --> A              
     e( 11 - 11) =      7.40773  eV     1   --> A              
     e( 12 - 12) =     12.22793  eV     1   --> A              
     e( 13 - 13) =     12.35343  eV     1   --> A              
     e( 14 - 14) =     13.42481  eV     1   --> A              
     e( 15 - 15) =     15.25503  eV     1   --> A              
     e( 16 - 16) =     15.59128  eV     1   --> A              

 **************************************************************************

 **************************************************************************

                    xk=(   0.50000,  -0.18283,   0.48309  )

     Band symmetry, C_1 (1)     point group:

     e(  1 -  1) =     -6.01790  eV     1   --> A              
     e(  2 -  2) =     -3.57097  eV     1   --> A              
     e(  3 -  3) =     -3.56552  eV     1   --> A              
     e(  4 -  4) =     -3.53303  eV     1   --> A              
     e(  5 -  5) =     -3.45410  eV     1   --> A              
     e(  6 -  6) =     -3.04002  eV     1   --> A              
     e(  7 -  7) =      0.39162  eV     1   --> A              
     e(  8 -  8) =      2.57618  eV     1   --> A              
     e(  9 -  9) =      2.61605  eV     1   --> A              
     e( 10 - 10) =      7.34625  eV     1   --> A              
     e( 11 - 11) =      7.46854  eV     1   --> A              
     e( 12 - 12) =     12.13516  eV     1   --> A              
     e( 13 - 13) =     12.21780  eV     1   --> A              
     e( 14 - 14) =     13.44696  eV     1   --> A              
     e( 15 - 15) =     15.26045  eV     1   --> A              
     e( 16 - 16) =     15.59002  eV     1   --> A              

 **************************************************************************

 **************************************************************************

                    xk=(   0.50000,  -0.17321,   0.48990  )

     Band symmetry, C_1 (1)     point group:

     e(  1 -  1) =     -6.01796  eV     1   --> A              
     e(  2 -  2) =     -3.57203  eV     1   --> A              
     e(  3 -  3) =     -3.56723  eV     1   --> A              
     e(  4 -  4) =     -3.53081  eV     1   --> A              
     e(  5 -  5) =     -3.45494  eV     1   --> A              
     e(  6 -  6) =     -3.03687  eV     1   --> A              
     e(  7 -  7) =      0.39700  eV     1   --> A              
     e(  8 -  8) =      2.55532  eV     1   --> A              
     e(  9 -  9) =      2.60177  eV     1   --> A              
     e( 10 - 10) =      7.40292  eV     1   --> A              
     e( 11 - 11) =      7.53424  eV     1   --> A              
     e( 12 - 12) =     12.04000  eV     1   --> A              
     e( 13 - 13) =     12.07865  eV     1   --> A              
     e( 14 - 14) =     13.46770  eV     1   --> A              
     e( 15 - 15) =     15.26591  eV     1   --> A              
     e( 16 - 16) =     15.59146  eV     1   --> A              

 **************************************************************************

 **************************************************************************

                    xk=(   0.50000,  -0.16358,   0.49670  )

     Band symmetry, C_1 (1)     point group:

     e(  1 -  1) =     -6.01802  eV     1   --> A              
     e(  2 -  2) =     -3.57298  eV     1   --> A              
     e(  3 -  3) =     -3.56887  eV     1   --> A              
     e(  4 -  4) =     -3.52853  eV     1   --> A              
     e(  5 -  5) =     -3.45580  eV     1   --> A              
     e(  6 -  6) =     -3.03358  eV     1   --> A              
     e(  7 -  7) =      0.40264  eV     1   --> A              
     e(  8 -  8) =      2.53389  eV     1   --> A              
     e(  9 -  9) =      2.58715  eV     1   --> A              
     e( 10 - 10) =      7.46280  eV     1   --> A              
     e( 11 - 11) =      7.60463  eV     1   --> A              
     e( 12 - 12) =     11.93689  eV     1   --> A              
     e( 13 - 13) =     11.94298  eV     1   --> A              
     e( 14 - 14) =     13.48709  eV     1   --> A              
     e( 15 - 15) =     15.27138  eV     1   --> A              
     e( 16 - 16) =     15.59515  eV     1   --> A              

 **************************************************************************

 **************************************************************************

                    xk=(   0.50000,  -0.15396,   0.50351  )

     Band symmetry, C_1 (1)     point group:

     e(  1 -  1) =     -6.01809  eV     1   --> A              
     e(  2 -  2) =     -3.57393  eV     1   --> A              
     e(  3 -  3) =     -3.57064  eV     1   --> A              
     e(  4 -  4) =     -3.52629  eV     1   --> A              
     e(  5 -  5) =     -3.45683  eV     1   --> A              
     e(  6 -  6) =     -3.03028  eV     1   --> A              
     e(  7 -  7) =      0.40848  eV     1   --> A              
     e(  8 -  8) =      2.51212  eV     1   --> A              
     e(  9 -  9) =      2.57236  eV     1   --> A              
     e( 10 - 10) =      7.52549  eV     1   --> A              
     e( 11 - 11) =      7.67947  eV     1   --> A              
     e( 12 - 12) =     11.79329  eV     1   --> A              
     e( 13 - 13) =     11.84463  eV     1   --> A              
     e( 14 - 14) =     13.50522  eV     1   --> A              
     e( 15 - 15) =     15.27683  eV     1   --> A              
     e( 16 - 16) =     15.60070  eV     1   --> A              

 **************************************************************************

 **************************************************************************

                    xk=(   0.50000,  -0.14434,   0.51031  )

     Band symmetry, C_1 (1)     point group:

     e(  1 -  1) =     -6.01815  eV     1   --> A              
     e(  2 -  2) =     -3.57484  eV     1   --> A              
     e(  3 -  3) =     -3.57243  eV     1   --> A              
     e(  4 -  4) =     -3.52407  eV     1   --> A              
     e(  5 -  5) =     -3.45785  eV     1   --> A              
     e(  6 -  6) =     -3.02697  eV     1   --> A              
     e(  7 -  7) =      0.41447  eV     1   --> A              
     e(  8 -  8) =      2.49025  eV     1   --> A              
     e(  9 -  9) =      2.55758  eV     1   --> A              
     e( 10 - 10) =      7.59057  eV     1   --> A              
     e( 11 - 11) =      7.75857  eV     1   --> A              
     e( 12 - 12) =     11.64850  eV     1   --> A              
     e( 13 - 13) =     11.74550  eV     1   --> A              
     e( 14 - 14) =     13.52216  eV     1   --> A              
     e( 15 - 15) =     15.28222  eV     1   --> A              
     e( 16 - 16) =     15.60775  eV     1   --> A              

 **************************************************************************

 **************************************************************************

                    xk=(   0.50000,  -0.13472,   0.51711  )

     Band symmetry, C_1 (1)     point group:

     e(  1 -  1) =     -6.01822  eV     1   --> A              
     e(  2 -  2) =     -3.57565  eV     1   --> A              
     e(  3 -  3) =     -3.57416  eV     1   --> A              
     e(  4 -  4) =     -3.52182  eV     1   --> A              
     e(  5 -  5) =     -3.45897  eV     1   --> A              
     e(  6 -  6) =     -3.02367  eV     1   --> A              
     e(  7 -  7) =      0.42054  eV     1   --> A              
     e(  8 -  8) =      2.46851  eV     1   --> A              
     e(  9 -  9) =      2.54295  eV     1   --> A              
     e( 10 - 10) =      7.65755  eV     1   --> A              
     e( 11 - 11) =      7.84167  eV     1   --> A              
     e( 12 - 12) =     11.50311  eV     1   --> A              
     e( 13 - 13) =     11.64619  eV     1   --> A              
     e( 14 - 14) =     13.53797  eV     1   --> A              
     e( 15 - 15) =     15.28753  eV     1   --> A              
     e( 16 - 16) =     15.61598  eV     1   --> A              

 **************************************************************************

 **************************************************************************

                    xk=(   0.50000,  -0.12509,   0.52392  )

     Band symmetry, C_1 (1)     point group:

     e(  1 -  1) =     -6.01828  eV     1   --> A              
     e(  2 -  2) =     -3.57642  eV     1   --> A              
     e(  3 -  3) =     -3.57591  eV     1   --> A              
     e(  4 -  4) =     -3.51958  eV     1   --> A              
     e(  5 -  5) =     -3.46019  eV     1   --> A              
     e(  6 -  6) =     -3.02043  eV     1   --> A              
     e(  7 -  7) =      0.42663  eV     1   --> A              
     e(  8 -  8) =      2.44713  eV     1   --> A              
     e(  9 -  9) =      2.52864  eV     1   --> A              
     e( 10 - 10) =      7.72593  eV     1   --> A              
     e( 11 - 11) =      7.92855  eV     1   --> A              
     e( 12 - 12) =     11.35761  eV     1   --> A              
     e( 13 - 13) =     11.54731  eV     1   --> A              
     e( 14 - 14) =     13.55269  eV     1   --> A              
     e( 15 - 15) =     15.29273  eV     1   --> A              
     e( 16 - 16) =     15.62475  eV     1   --> A              

 **************************************************************************

 **************************************************************************

                    xk=(   0.50000,  -0.11547,   0.53072  )

     Band symmetry, C_1 (1)     point group:

     e(  1 -  1) =     -6.01835  eV     1   --> A              
     e(  2 -  2) =     -3.57760  eV     1   --> A              
     e(  3 -  3) =     -3.57722  eV     1   --> A              
     e(  4 -  4) =     -3.51747  eV     1   --> A              
     e(  5 -  5) =     -3.46140  eV     1   --> A              
     e(  6 -  6) =     -3.01728  eV     1   --> A              
     e(  7 -  7) =      0.43266  eV     1   --> A              
     e(  8 -  8) =      2.42632  eV     1   --> A              
     e(  9 -  9) =      2.51478  eV     1   --> A              
     e( 10 - 10) =      7.79513  eV     1   --> A              
     e( 11 - 11) =      8.01894  eV     1   --> A              
     e( 12 - 12) =     11.21249  eV     1   --> A              
     e( 13 - 13) =     11.44953  eV     1   --> A              
     e( 14 - 14) =     13.56635  eV     1   --> A              
     e( 15 - 15) =     15.29777  eV     1   --> A              
     e( 16 - 16) =     15.60790  eV     1   --> A              

 **************************************************************************

 **************************************************************************

                    xk=(   0.50000,  -0.10585,   0.53753  )

     Band symmetry, C_1 (1)     point group:

     e(  1 -  1) =     -6.01841  eV     1   --> A              
     e(  2 -  2) =     -3.57917  eV     1   --> A              
     e(  3 -  3) =     -3.57787  eV     1   --> A              
     e(  4 -  4) =     -3.51527  eV     1   --> A              
     e(  5 -  5) =     -3.46265  eV     1   --> A              
     e(  6 -  6) =     -3.01423  eV     1   --> A              
     e(  7 -  7) =      0.43858  eV     1   --> A              
     e(  8 -  8) =      2.40631  eV     1   --> A              
     e(  9 -  9) =      2.50153  eV     1   --> A              
     e( 10 - 10) =      7.86452  eV     1   --> A              
     e( 11 - 11) =      8.11254  eV     1   --> A              
     e( 12 - 12) =     11.06818  eV     1   --> A              
     e( 13 - 13) =     11.35356  eV     1   --> A              
     e( 14 - 14) =     13.57898  eV     1   --> A              
     e( 15 - 15) =     15.30263  eV     1   --> A              
     e( 16 - 16) =     15.59186  eV     1   --> A              

 **************************************************************************

 **************************************************************************

                    xk=(   0.50000,  -0.09623,   0.54433  )

     Band symmetry, C_1 (1)     point group:

     e(  1 -  1) =     -6.01846  eV     1   --> A              
     e(  2 -  2) =     -3.58056  eV     1   --> A              
     e(  3 -  3) =     -3.57836  eV     1   --> A              
     e(  4 -  4) =     -3.51297  eV     1   --> A              
     e(  5 -  5) =     -3.46391  eV     1   --> A              
     e(  6 -  6) =     -3.01128  eV     1   --> A              
     e(  7 -  7) =      0.44431  eV     1   --> A              
     e(  8 -  8) =      2.38729  eV     1   --> A              
     e(  9 -  9) =      2.48899  eV     1   --> A              
     e( 10 - 10) =      7.93339  eV     1   --> A              
     e( 11 - 11) =      8.20904  eV     1   --> A              
     e( 12 - 12) =     10.92515  eV     1   --> A              
     e( 13 - 13) =     11.26019  eV     1   --> A              
     e( 14 - 14) =     13.59059  eV     1   --> A              
     e( 15 - 15) =     15.30726  eV     1   --> A              
     e( 16 - 16) =     15.57676  eV     1   --> A              

 **************************************************************************

 **************************************************************************

                    xk=(   0.50000,  -0.08660,   0.55114  )

     Band symmetry, C_1 (1)     point group:

     e(  1 -  1) =     -6.01853  eV     1   --> A              
     e(  2 -  2) =     -3.58203  eV     1   --> A              
     e(  3 -  3) =     -3.57891  eV     1   --> A              
     e(  4 -  4) =     -3.51089  eV     1   --> A              
     e(  5 -  5) =     -3.46523  eV     1   --> A              
     e(  6 -  6) =     -3.00868  eV     1   --> A              
     e(  7 -  7) =      0.44977  eV     1   --> A              
     e(  8 -  8) =      2.36944  eV     1   --> A              
     e(  9 -  9) =      2.47729  eV     1   --> A              
     e( 10 - 10) =      8.00092  eV     1   --> A              
     e( 11 - 11) =      8.30802  eV     1   --> A              
     e( 12 - 12) =     10.78388  eV     1   --> A              
     e( 13 - 13) =     11.17030  eV     1   --> A              
     e( 14 - 14) =     13.60117  eV     1   --> A              
     e( 15 - 15) =     15.31161  eV     1   --> A              
     e( 16 - 16) =     15.56270  eV     1   --> A              

 **************************************************************************

 **************************************************************************

                    xk=(   0.50000,  -0.07698,   0.55794  )

     Band symmetry, C_1 (1)     point group:

     e(  1 -  1) =     -6.01858  eV     1   --> A              
     e(  2 -  2) =     -3.58331  eV     1   --> A              
     e(  3 -  3) =     -3.57939  eV     1   --> A              
     e(  4 -  4) =     -3.50886  eV     1   --> A              
     e(  5 -  5) =     -3.46653  eV     1   --> A              
     e(  6 -  6) =     -3.00617  eV     1   --> A              
     e(  7 -  7) =      0.45489  eV     1   --> A              
     e(  8 -  8) =      2.35295  eV     1   --> A              
     e(  9 -  9) =      2.46653  eV     1   --> A              
     e( 10 - 10) =      8.06621  eV     1   --> A              
     e( 11 - 11) =      8.40900  eV     1   --> A              
     e( 12 - 12) =     10.64493  eV     1   --> A              
     e( 13 - 13) =     11.08485  eV     1   --> A              
     e( 14 - 14) =     13.61071  eV     1   --> A              
     e( 15 - 15) =     15.31565  eV     1   --> A              
     e( 16 - 16) =     15.54980  eV     1   --> A              

 **************************************************************************

 **************************************************************************

                    xk=(   0.50000,  -0.06736,   0.56474  )

     Band symmetry, C_1 (1)     point group:

     e(  1 -  1) =     -6.01863  eV     1   --> A              
     e(  2 -  2) =     -3.58448  eV     1   --> A              
     e(  3 -  3) =     -3.57981  eV     1   --> A              
     e(  4 -  4) =     -3.50693  eV     1   --> A              
     e(  5 -  5) =     -3.46792  eV     1   --> A              
     e(  6 -  6) =     -3.00390  eV     1   --> A              
     e(  7 -  7) =      0.45961  eV     1   --> A              
     e(  8 -  8) =      2.33798  eV     1   --> A              
     e(  9 -  9) =      2.45682  eV     1   --> A              
     e( 10 - 10) =      8.12824  eV     1   --> A              
     e( 11 - 11) =      8.51131  eV     1   --> A              
     e( 12 - 12) =     10.50904  eV     1   --> A              
     e( 13 - 13) =     11.00492  eV     1   --> A              
     e( 14 - 14) =     13.61920  eV     1   --> A              
     e( 15 - 15) =     15.31933  eV     1   --> A              
     e( 16 - 16) =     15.53814  eV     1   --> A              

 **************************************************************************

 **************************************************************************

                    xk=(   0.50000,  -0.05774,   0.57155  )

     Band symmetry, C_1 (1)     point group:

     e(  1 -  1) =     -6.01867  eV     1   --> A              
     e(  2 -  2) =     -3.58546  eV     1   --> A              
     e(  3 -  3) =     -3.58011  eV     1   --> A              
     e(  4 -  4) =     -3.50505  eV     1   --> A              
     e(  5 -  5) =     -3.46909  eV     1   --> A              
     e(  6 -  6) =     -3.00184  eV     1   --> A              
     e(  7 -  7) =      0.46385  eV     1   --> A              
     e(  8 -  8) =      2.32469  eV     1   --> A              
     e(  9 -  9) =      2.44823  eV     1   --> A              
     e( 10 - 10) =      8.18587  eV     1   --> A              
     e( 11 - 11) =      8.61403  eV     1   --> A              
     e( 12 - 12) =     10.37716  eV     1   --> A              
     e( 13 - 13) =     10.93169  eV     1   --> A              
     e( 14 - 14) =     13.62662  eV     1   --> A              
     e( 15 - 15) =     15.32262  eV     1   --> A              
     e( 16 - 16) =     15.52784  eV     1   --> A              

 **************************************************************************

 **************************************************************************

                    xk=(   0.50000,  -0.04811,   0.57835  )

     Band symmetry, C_1 (1)     point group:

     e(  1 -  1) =     -6.01871  eV     1   --> A              
     e(  2 -  2) =     -3.58643  eV     1   --> A              
     e(  3 -  3) =     -3.58045  eV     1   --> A              
     e(  4 -  4) =     -3.50341  eV     1   --> A              
     e(  5 -  5) =     -3.47029  eV     1   --> A              
     e(  6 -  6) =     -3.00019  eV     1   --> A              
     e(  7 -  7) =      0.46756  eV     1   --> A              
     e(  8 -  8) =      2.31320  eV     1   --> A              
     e(  9 -  9) =      2.44083  eV     1   --> A              
     e( 10 - 10) =      8.23786  eV     1   --> A              
     e( 11 - 11) =      8.71572  eV     1   --> A              
     e( 12 - 12) =     10.25074  eV     1   --> A              
     e( 13 - 13) =     10.86644  eV     1   --> A              
     e( 14 - 14) =     13.63295  eV     1   --> A              
     e( 15 - 15) =     15.32547  eV     1   --> A              
     e( 16 - 16) =     15.51897  eV     1   --> A              

 **************************************************************************

 **************************************************************************

                    xk=(   0.50000,  -0.03849,   0.58516  )

     Band symmetry, C_1 (1)     point group:

     e(  1 -  1) =     -6.01874  eV     1   --> A              
     e(  2 -  2) =     -3.58716  eV     1   --> A              
     e(  3 -  3) =     -3.58070  eV     1   --> A              
     e(  4 -  4) =     -3.50192  eV     1   --> A              
     e(  5 -  5) =     -3.47138  eV     1   --> A              
     e(  6 -  6) =     -2.99874  eV     1   --> A              
     e(  7 -  7) =      0.47067  eV     1   --> A              
     e(  8 -  8) =      2.30364  eV     1   --> A              
     e(  9 -  9) =      2.43469  eV     1   --> A              
     e( 10 - 10) =      8.28289  eV     1   --> A              
     e( 11 - 11) =      8.81418  eV     1   --> A              
     e( 12 - 12) =     10.13204  eV     1   --> A              
     e( 13 - 13) =     10.81050  eV     1   --> A              
     e( 14 - 14) =     13.63817  eV     1   --> A              
     e( 15 - 15) =     15.32785  eV     1   --> A              
     e( 16 - 16) =     15.51161  eV     1   --> A              

 **************************************************************************

 **************************************************************************

                    xk=(   0.50000,  -0.02887,   0.59196  )

     Band symmetry, C_1 (1)     point group:

     e(  1 -  1) =     -6.01878  eV     1   --> A              
     e(  2 -  2) =     -3.58785  eV     1   --> A              
     e(  3 -  3) =     -3.58090  eV     1   --> A              
     e(  4 -  4) =     -3.50069  eV     1   --> A              
     e(  5 -  5) =     -3.47245  eV     1   --> A              
     e(  6 -  6) =     -2.99773  eV     1   --> A              
     e(  7 -  7) =      0.47315  eV     1   --> A              
     e(  8 -  8) =      2.29610  eV     1   --> A              
     e(  9 -  9) =      2.42987  eV     1   --> A              
     e( 10 - 10) =      8.31967  eV     1   --> A              
     e( 11 - 11) =      8.90566  eV     1   --> A              
     e( 12 - 12) =     10.02479  eV     1   --> A              
     e( 13 - 13) =     10.76522  eV     1   --> A              
     e( 14 - 14) =     13.64225  eV     1   --> A              
     e( 15 - 15) =     15.32974  eV     1   --> A              
     e( 16 - 16) =     15.50580  eV     1   --> A              

 **************************************************************************

 **************************************************************************

                    xk=(   0.50000,  -0.01925,   0.59876  )

     Band symmetry, C_1 (1)     point group:

     e(  1 -  1) =     -6.01879  eV     1   --> A              
     e(  2 -  2) =     -3.58818  eV     1   --> A              
     e(  3 -  3) =     -3.58095  eV     1   --> A              
     e(  4 -  4) =     -3.49964  eV     1   --> A              
     e(  5 -  5) =     -3.47316  eV     1   --> A              
     e(  6 -  6) =     -2.99684  eV     1   --> A              
     e(  7 -  7) =      0.47494  eV     1   --> A              
     e(  8 -  8) =      2.29067  eV     1   --> A              
     e(  9 -  9) =      2.42639  eV     1   --> A              
     e( 10 - 10) =      8.34698  eV     1   --> A              
     e( 11 - 11) =      8.98387  eV     1   --> A              
     e( 12 - 12) =      9.93531  eV     1   --> A              
     e( 13 - 13) =     10.73184  eV     1   --> A              
     e( 14 - 14) =     13.64518  eV     1   --> A              
     e( 15 - 15) =     15.33110  eV     1   --> A              
     e( 16 - 16) =     15.50162  eV     1   --> A              

 **************************************************************************

 **************************************************************************

                    xk=(   0.50000,  -0.00962,   0.60557  )

     Band symmetry, C_1 (1)     point group:

     e(  1 -  1) =     -6.01879  eV     1   --> A              
     e(  2 -  2) =     -3.58831  eV     1   --> A              
     e(  3 -  3) =     -3.58101  eV     1   --> A              
     e(  4 -  4) =     -3.49901  eV     1   --> A              
     e(  5 -  5) =     -3.47350  eV     1   --> A              
     e(  6 -  6) =     -2.99623  eV     1   --> A              
     e(  7 -  7) =      0.47604  eV     1   --> A              
     e(  8 -  8) =      2.28738  eV     1   --> A              
     e(  9 -  9) =      2.42430  eV     1   --> A              
[...]

 **************************************************************************

                    xk=(   0.44167,  -0.05292,   0.49779  )

     Band symmetry, C_1 (1)     point group:

     e(  1 -  1) =     -6.02931  eV     1   --> A              
     e(  2 -  2) =     -3.58633  eV     1   --> A              
     e(  3 -  3) =     -3.58191  eV     1   --> A              
     e(  4 -  4) =     -3.51113  eV     1   --> A              
     e(  5 -  5) =     -3.46449  eV     1   --> A              
     e(  6 -  6) =     -3.03789  eV     1   --> A              
     e(  7 -  7) =      0.49793  eV     1   --> A              
     e(  8 -  8) =      2.34077  eV     1   --> A              
     e(  9 -  9) =      2.63538  eV     1   --> A              
     e( 10 - 10) =      7.96234  eV     1   --> A              
     e( 11 - 11) =      8.33281  eV     1   --> A              
     e( 12 - 12) =     10.33269  eV     1   --> A              
     e( 13 - 13) =     11.73397  eV     1   --> A              
     e( 14 - 14) =     13.14919  eV     1   --> A              
     e( 15 - 15) =     14.87049  eV     1   --> A              
     e( 16 - 16) =     15.76974  eV     1   --> A              

 **************************************************************************

 **************************************************************************

                    xk=(   0.44583,  -0.06976,   0.49139  )

     Band symmetry, C_1 (1)     point group:

     e(  1 -  1) =     -6.02819  eV     1   --> A              
     e(  2 -  2) =     -3.58366  eV     1   --> A              
     e(  3 -  3) =     -3.58065  eV     1   --> A              
     e(  4 -  4) =     -3.51438  eV     1   --> A              
     e(  5 -  5) =     -3.46267  eV     1   --> A              
     e(  6 -  6) =     -3.03966  eV     1   --> A              
     e(  7 -  7) =      0.48821  eV     1   --> A              
     e(  8 -  8) =      2.37834  eV     1   --> A              
     e(  9 -  9) =      2.62466  eV     1   --> A              
     e( 10 - 10) =      7.87139  eV     1   --> A              
     e( 11 - 11) =      8.18173  eV     1   --> A              
     e( 12 - 12) =     10.54468  eV     1   --> A              
     e( 13 - 13) =     11.83457  eV     1   --> A              
     e( 14 - 14) =     13.19961  eV     1   --> A              
     e( 15 - 15) =     14.96063  eV     1   --> A              
     e( 16 - 16) =     15.69362  eV     1   --> A              

 **************************************************************************

 **************************************************************************

                    xk=(   0.45000,  -0.08660,   0.48500  )

     Band symmetry, C_1 (1)     point group:

     e(  1 -  1) =     -6.02702  eV     1   --> A              
     e(  2 -  2) =     -3.58080  eV     1   --> A              
     e(  3 -  3) =     -3.57922  eV     1   --> A              
     e(  4 -  4) =     -3.51768  eV     1   --> A              
     e(  5 -  5) =     -3.46095  eV     1   --> A              
     e(  6 -  6) =     -3.04152  eV     1   --> A              
     e(  7 -  7) =      0.47700  eV     1   --> A              
     e(  8 -  8) =      2.41627  eV     1   --> A              
     e(  9 -  9) =      2.61887  eV     1   --> A              
     e( 10 - 10) =      7.77450  eV     1   --> A              
     e( 11 - 11) =      8.03776  eV     1   --> A              
     e( 12 - 12) =     10.76820  eV     1   --> A              
     e( 13 - 13) =     11.93977  eV     1   --> A              
     e( 14 - 14) =     13.24316  eV     1   --> A              
     e( 15 - 15) =     15.04632  eV     1   --> A              
     e( 16 - 16) =     15.62202  eV     1   --> A              

 **************************************************************************

 **************************************************************************

                    xk=(   0.45417,  -0.10344,   0.47860  )

     Band symmetry, C_1 (1)     point group:

     e(  1 -  1) =     -6.02583  eV     1   --> A              
     e(  2 -  2) =     -3.57808  eV     1   --> A              
     e(  3 -  3) =     -3.57743  eV     1   --> A              
     e(  4 -  4) =     -3.52106  eV     1   --> A              
     e(  5 -  5) =     -3.45932  eV     1   --> A              
     e(  6 -  6) =     -3.04350  eV     1   --> A              
     e(  7 -  7) =      0.46462  eV     1   --> A              
     e(  8 -  8) =      2.45405  eV     1   --> A              
     e(  9 -  9) =      2.61767  eV     1   --> A              
     e( 10 - 10) =      7.67535  eV     1   --> A              
     e( 11 - 11) =      7.90181  eV     1   --> A              
     e( 12 - 12) =     10.99950  eV     1   --> A              
     e( 13 - 13) =     12.04834  eV     1   --> A              
     e( 14 - 14) =     13.27940  eV     1   --> A              
     e( 15 - 15) =     15.12652  eV     1   --> A              
     e( 16 - 16) =     15.55675  eV     1   --> A              

 **************************************************************************

 **************************************************************************

                    xk=(   0.45833,  -0.12028,   0.47221  )

     Band symmetry, C_1 (1)     point group:

     e(  1 -  1) =     -6.02464  eV     1   --> A              
     e(  2 -  2) =     -3.57629  eV     1   --> A              
     e(  3 -  3) =     -3.57461  eV     1   --> A              
     e(  4 -  4) =     -3.52448  eV     1   --> A              
     e(  5 -  5) =     -3.45776  eV     1   --> A              
     e(  6 -  6) =     -3.04558  eV     1   --> A              
     e(  7 -  7) =      0.45143  eV     1   --> A              
     e(  8 -  8) =      2.49112  eV     1   --> A              
     e(  9 -  9) =      2.62057  eV     1   --> A              
     e( 10 - 10) =      7.57692  eV     1   --> A              
     e( 11 - 11) =      7.77453  eV     1   --> A              
     e( 12 - 12) =     11.23526  eV     1   --> A              
     e( 13 - 13) =     12.15932  eV     1   --> A              
     e( 14 - 14) =     13.30783  eV     1   --> A              
     e( 15 - 15) =     15.19927  eV     1   --> A              
     e( 16 - 16) =     15.50051  eV     1   --> A              

 **************************************************************************

 **************************************************************************

                    xk=(   0.46250,  -0.13712,   0.46581  )

     Band symmetry, C_1 (1)     point group:

     e(  1 -  1) =     -6.02348  eV     1   --> A              
     e(  2 -  2) =     -3.57456  eV     1   --> A              
     e(  3 -  3) =     -3.57153  eV     1   --> A              
     e(  4 -  4) =     -3.52783  eV     1   --> A              
     e(  5 -  5) =     -3.45622  eV     1   --> A              
     e(  6 -  6) =     -3.04766  eV     1   --> A              
     e(  7 -  7) =      0.43784  eV     1   --> A              
     e(  8 -  8) =      2.52694  eV     1   --> A              
     e(  9 -  9) =      2.62693  eV     1   --> A              
     e( 10 - 10) =      7.48171  eV     1   --> A              
     e( 11 - 11) =      7.65650  eV     1   --> A              
     e( 12 - 12) =     11.47221  eV     1   --> A              
     e( 13 - 13) =     12.27201  eV     1   --> A              
     e( 14 - 14) =     13.32793  eV     1   --> A              
     e( 15 - 15) =     15.25920  eV     1   --> A              
     e( 16 - 16) =     15.45934  eV     1   --> A              

 **************************************************************************

 **************************************************************************

                    xk=(   0.46667,  -0.15396,   0.45942  )

     Band symmetry, C_1 (1)     point group:

     e(  1 -  1) =     -6.02238  eV     1   --> A              
     e(  2 -  2) =     -3.57280  eV     1   --> A              
     e(  3 -  3) =     -3.56863  eV     1   --> A              
     e(  4 -  4) =     -3.53121  eV     1   --> A              
     e(  5 -  5) =     -3.45493  eV     1   --> A              
     e(  6 -  6) =     -3.04976  eV     1   --> A              
     e(  7 -  7) =      0.42426  eV     1   --> A              
     e(  8 -  8) =      2.56092  eV     1   --> A              
     e(  9 -  9) =      2.63600  eV     1   --> A              
     e( 10 - 10) =      7.39186  eV     1   --> A              
     e( 11 - 11) =      7.54821  eV     1   --> A              
     e( 12 - 12) =     11.70668  eV     1   --> A              
     e( 13 - 13) =     12.38607  eV     1   --> A              
     e( 14 - 14) =     13.33922  eV     1   --> A              
     e( 15 - 15) =     15.29210  eV     1   --> A              
     e( 16 - 16) =     15.44798  eV     1   --> A              

 **************************************************************************

 **************************************************************************

                    xk=(   0.47083,  -0.17080,   0.45302  )

     Band symmetry, C_1 (1)     point group:

     e(  1 -  1) =     -6.02133  eV     1   --> A              
     e(  2 -  2) =     -3.57093  eV     1   --> A              
     e(  3 -  3) =     -3.56576  eV     1   --> A              
     e(  4 -  4) =     -3.53452  eV     1   --> A              
     e(  5 -  5) =     -3.45376  eV     1   --> A              
     e(  6 -  6) =     -3.05174  eV     1   --> A              
     e(  7 -  7) =      0.41113  eV     1   --> A              
     e(  8 -  8) =      2.59249  eV     1   --> A              
     e(  9 -  9) =      2.64697  eV     1   --> A              
     e( 10 - 10) =      7.30915  eV     1   --> A              
     e( 11 - 11) =      7.45020  eV     1   --> A              
     e( 12 - 12) =     11.93423  eV     1   --> A              
     e( 13 - 13) =     12.50163  eV     1   --> A              
     e( 14 - 14) =     13.34130  eV     1   --> A              
     e( 15 - 15) =     15.28908  eV     1   --> A              
     e( 16 - 16) =     15.47562  eV     1   --> A              

 **************************************************************************

 **************************************************************************

                    xk=(   0.47500,  -0.18764,   0.44662  )

     Band symmetry, C_1 (1)     point group:

     e(  1 -  1) =     -6.02038  eV     1   --> A              
     e(  2 -  2) =     -3.56897  eV     1   --> A              
     e(  3 -  3) =     -3.56315  eV     1   --> A              
     e(  4 -  4) =     -3.53775  eV     1   --> A              
     e(  5 -  5) =     -3.45273  eV     1   --> A              
     e(  6 -  6) =     -3.05360  eV     1   --> A              
     e(  7 -  7) =      0.39885  eV     1   --> A              
     e(  8 -  8) =      2.62109  eV     1   --> A              
     e(  9 -  9) =      2.65896  eV     1   --> A              
     e( 10 - 10) =      7.23511  eV     1   --> A              
     e( 11 - 11) =      7.36303  eV     1   --> A              
     e( 12 - 12) =     12.14909  eV     1   --> A              
     e( 13 - 13) =     12.61938  eV     1   --> A              
     e( 14 - 14) =     13.33398  eV     1   --> A              
     e( 15 - 15) =     15.27039  eV     1   --> A              
     e( 16 - 16) =     15.52215  eV     1   --> A              

 **************************************************************************

 **************************************************************************

                    xk=(   0.47917,  -0.20448,   0.44023  )

     Band symmetry, C_1 (1)     point group:

     e(  1 -  1) =     -6.01954  eV     1   --> A              
     e(  2 -  2) =     -3.56686  eV     1   --> A              
     e(  3 -  3) =     -3.56074  eV     1   --> A              
     e(  4 -  4) =     -3.54083  eV     1   --> A              
     e(  5 -  5) =     -3.45182  eV     1   --> A              
     e(  6 -  6) =     -3.05526  eV     1   --> A              
     e(  7 -  7) =      0.38778  eV     1   --> A              
     e(  8 -  8) =      2.64621  eV     1   --> A              
     e(  9 -  9) =      2.67108  eV     1   --> A              
     e( 10 - 10) =      7.17096  eV     1   --> A              
     e( 11 - 11) =      7.28733  eV     1   --> A              
     e( 12 - 12) =     12.34408  eV     1   --> A              
     e( 13 - 13) =     12.74026  eV     1   --> A              
     e( 14 - 14) =     13.31740  eV     1   --> A              
     e( 15 - 15) =     15.25142  eV     1   --> A              
     e( 16 - 16) =     15.57242  eV     1   --> A              

 **************************************************************************

 **************************************************************************

                    xk=(   0.48333,  -0.22132,   0.43383  )

     Band symmetry, C_1 (1)     point group:

     e(  1 -  1) =     -6.01882  eV     1   --> A              
     e(  2 -  2) =     -3.56472  eV     1   --> A              
     e(  3 -  3) =     -3.55871  eV     1   --> A              
     e(  4 -  4) =     -3.54390  eV     1   --> A              
     e(  5 -  5) =     -3.45105  eV     1   --> A              
     e(  6 -  6) =     -3.05665  eV     1   --> A              
     e(  7 -  7) =      0.37826  eV     1   --> A              
     e(  8 -  8) =      2.66739  eV     1   --> A              
     e(  9 -  9) =      2.68248  eV     1   --> A              
     e( 10 - 10) =      7.11764  eV     1   --> A              
     e( 11 - 11) =      7.22381  eV     1   --> A              
     e( 12 - 12) =     12.51195  eV     1   --> A              
     e( 13 - 13) =     12.86353  eV     1   --> A              
     e( 14 - 14) =     13.29221  eV     1   --> A              
     e( 15 - 15) =     15.23670  eV     1   --> A              
     e( 16 - 16) =     15.62283  eV     1   --> A              

 **************************************************************************

 **************************************************************************

                    xk=(   0.48750,  -0.23816,   0.42744  )

     Band symmetry, C_1 (1)     point group:

     e(  1 -  1) =     -6.01826  eV     1   --> A              
     e(  2 -  2) =     -3.56250  eV     1   --> A              
     e(  3 -  3) =     -3.55705  eV     1   --> A              
     e(  4 -  4) =     -3.54688  eV     1   --> A              
     e(  5 -  5) =     -3.45040  eV     1   --> A              
     e(  6 -  6) =     -3.05784  eV     1   --> A              
     e(  7 -  7) =      0.37055  eV     1   --> A              
     e(  8 -  8) =      2.68424  eV     1   --> A              
     e(  9 -  9) =      2.69234  eV     1   --> A              
     e( 10 - 10) =      7.07579  eV     1   --> A              
     e( 11 - 11) =      7.17323  eV     1   --> A              
     e( 12 - 12) =     12.64847  eV     1   --> A              
     e( 13 - 13) =     12.98293  eV     1   --> A              
     e( 14 - 14) =     13.26003  eV     1   --> A              
     e( 15 - 15) =     15.22699  eV     1   --> A              
     e( 16 - 16) =     15.67519  eV     1   --> A              

 **************************************************************************

 **************************************************************************

                    xk=(   0.49167,  -0.25500,   0.42104  )

     Band symmetry, C_1 (1)     point group:

     e(  1 -  1) =     -6.01786  eV     1   --> A              
     e(  2 -  2) =     -3.56022  eV     1   --> A              
     e(  3 -  3) =     -3.55593  eV     1   --> A              
     e(  4 -  4) =     -3.54981  eV     1   --> A              
     e(  5 -  5) =     -3.45008  eV     1   --> A              
     e(  6 -  6) =     -3.05877  eV     1   --> A              
     e(  7 -  7) =      0.36488  eV     1   --> A              
     e(  8 -  8) =      2.69648  eV     1   --> A              
     e(  9 -  9) =      2.69994  eV     1   --> A              
     e( 10 - 10) =      7.04579  eV     1   --> A              
     e( 11 - 11) =      7.13634  eV     1   --> A              
     e( 12 - 12) =     12.75309  eV     1   --> A              
     e( 13 - 13) =     13.08525  eV     1   --> A              
     e( 14 - 14) =     13.22439  eV     1   --> A              
     e( 15 - 15) =     15.22162  eV     1   --> A              
     e( 16 - 16) =     15.73478  eV     1   --> A              

 **************************************************************************

 **************************************************************************

                    xk=(   0.49583,  -0.27184,   0.41464  )

     Band symmetry, C_1 (1)     point group:

     e(  1 -  1) =     -6.01762  eV     1   --> A              
     e(  2 -  2) =     -3.55782  eV     1   --> A              
     e(  3 -  3) =     -3.55523  eV     1   --> A              
     e(  4 -  4) =     -3.55260  eV     1   --> A              
     e(  5 -  5) =     -3.44987  eV     1   --> A              
     e(  6 -  6) =     -3.05939  eV     1   --> A              
     e(  7 -  7) =      0.36142  eV     1   --> A              
     e(  8 -  8) =      2.70390  eV     1   --> A              
     e(  9 -  9) =      2.70474  eV     1   --> A              
     e( 10 - 10) =      7.02779  eV     1   --> A              
     e( 11 - 11) =      7.11386  eV     1   --> A              
     e( 12 - 12) =     12.82333  eV     1   --> A              
     e( 13 - 13) =     13.15480  eV     1   --> A              
     e( 14 - 14) =     13.19299  eV     1   --> A              
     e( 15 - 15) =     15.21928  eV     1   --> A              
     e( 16 - 16) =     15.80738  eV     1   --> A              

 **************************************************************************

 **************************************************************************

                    xk=(   0.50000,  -0.28868,   0.40825  )

     point group C_s (m)    
     there are  2 classes
     the character table:

       E     s    
A'     1.00  1.00
A''    1.00 -1.00

     the symmetry operations in each class and the name of the first element:

     E        1
                                                                 
     s        2
                                                                 

     Band symmetry, C_s (m)     point group:

     e(  1 -  1) =     -6.01754  eV     1   --> A'             
     e(  2 -  2) =     -3.55555  eV     1   --> A'             
     e(  3 -  4) =     -3.55498  eV     2   --> A'             
     e(  3 -  4) =     -3.55498  eV     2   --> A''            
     e(  5 -  5) =     -3.44978  eV     1   --> A''            
     e(  6 -  6) =     -3.05957  eV     1   --> A'             
     e(  7 -  7) =      0.36026  eV     1   --> A'             
     e(  8 -  9) =      2.70638  eV     2   --> A'             
     e(  8 -  9) =      2.70638  eV     2   --> A''            
     e( 10 - 10) =      7.02180  eV     1   --> A'             
     e( 11 - 11) =      7.10631  eV     1   --> A'             
     e( 12 - 12) =     12.84936  eV     1   --> A'             
     e( 13 - 14) =     13.17949  eV     2   --> A'             
     e( 13 - 14) =     13.17949  eV     2   --> A''            
     e( 15 - 15) =     15.21868  eV     1   --> A''            
     e( 16 - 16) =     15.86985  eV     1   -->   ?

 **************************************************************************

     BANDS        :     57.21s CPU     18.70s WALL


   This run was terminated on:   5:18:56  19Dec2024            

=------------------------------------------------------------------------------=
   JOB DONE.
=------------------------------------------------------------------------------=
