
     Program PWSCF v.7.0 starts on 19Dec2024 at  5:15:48 

     This program is part of the open-source Quantum ESPRESSO suite
     for quantum simulation of materials; please cite
         "P. Giannozzi et al., J. Phys.:Condens. Matter 21 395502 (2009);
         "P. Giannozzi et al., J. Phys.:Condens. Matter 29 465901 (2017);
         "P. Giannozzi et al., J. Chem. Phys. 152 154105 (2020);
          URL http://www.quantum-espresso.org", 
     in publications or presentations arising from this work. More details at
     http://www.quantum-espresso.org/quote

     Parallel version (MPI & OpenMP), running on       2 processor cores
     Number of MPI processes:                 2
     Threads/MPI process:                     1

     MPI processes distributed on     1 nodes
     R & G space division:  proc/nbgrp/npool/nimage =       2
     266 MiB available memory on the printing compute node when the environment starts

     Reading input from pw.bands.in

     Current dimensions of program PWSCF are:
     Max number of different atomic species (ntypx) = 10
     Max number of k-points (npk) =  40000
     Max angular momentum in pseudopotentials (lmaxx) =  4

     Atomic positions and unit cell read from directory:
     ./outputs/cdte.save/
     Atomic positions from file used, from input discarded

     file Cd.pbe-n-kjpaw_psl.1.0.0.UPF: wavefunction(s)  5S 4D renormalized
     file Te.pbe-n-kjpaw_psl.1.0.0.UPF: wavefunction(s)  5S 5P renormalized

     IMPORTANT: XC functional enforced from input :
     Exchange-correlation= PBE
                           (   1   4   3   4   0   0   0)
     Any further DFT definition will be discarded
     Please, verify this is what you really want

     Message from routine setup:
     using ibrav=0 with symmetry is DISCOURAGED, use correct ibrav instead

     Subspace diagonalization in iterative solution of the eigenvalue problem:
     a serial algorithm will be used


     Parallelization info
     --------------------
     sticks:   dense  smooth     PW     G-vecs:    dense   smooth      PW
     Min         534     534    156                11750    11750    1847
     Max         535     535    157                11755    11755    1848
     Sum        1069    1069    313                23505    23505    3695

     Using Slab Decomposition



     bravais-lattice index     =            0
     lattice parameter (alat)  =       8.8580  a.u.
     unit-cell volume          =     491.4607 (a.u.)^3
     number of atoms/cell      =            2
     number of atomic types    =            2
     number of electrons       =        18.00
     number of Kohn-Sham states=           16
     kinetic-energy cutoff     =      50.0000  Ry
     charge density cutoff     =     200.0000  Ry
     Exchange-correlation= PBE
                           (   1   4   3   4   0   0   0)

     celldm(1)=   8.857978  celldm(2)=   0.000000  celldm(3)=   0.000000
     celldm(4)=   0.000000  celldm(5)=   0.000000  celldm(6)=   0.000000

     crystal axes: (cart. coord. in units of alat)
               a(1) = (   1.000000   0.000000   0.000000 )  
               a(2) = (   0.500000   0.866025   0.000000 )  
               a(3) = (   0.500000   0.288675   0.816497 )  

     reciprocal axes: (cart. coord. in units 2 pi/alat)
               b(1) = (  1.000000 -0.577350 -0.408248 )  
               b(2) = (  0.000000  1.154701 -0.408248 )  
               b(3) = (  0.000000  0.000000  1.224745 )  


     PseudoPot. # 1 for Cd read from file:
     ../Pseudopotentials/Cd.pbe-n-kjpaw_psl.1.0.0.UPF
     MD5 check sum: f937b97fdfaed69b45145e9d47a28171
     Pseudo is Projector augmented-wave + core cor, Zval = 12.0
     Generated using &quot;atomic&quot; code by A. Dal Corso  v.6.3
     Shape of augmentation charge: PSQ
     Using radial grid of 1239 points,  6 beta functions with: 
                l(1) =   0
                l(2) =   0
                l(3) =   1
                l(4) =   1
                l(5) =   2
                l(6) =   2
     Q(r) pseudized with 0 coefficients 


     PseudoPot. # 2 for Te read from file:
     ../Pseudopotentials/Te.pbe-n-kjpaw_psl.1.0.0.UPF
     MD5 check sum: 66247bff2bd9dbf220fbb0bf5ab56e9d
     Pseudo is Projector augmented-wave + core cor, Zval =  6.0
     Generated using &quot;atomic&quot; code by A. Dal Corso  v.6.3
     Shape of augmentation charge: PSQ
     Using radial grid of 1245 points,  6 beta functions with: 
                l(1) =   0
                l(2) =   0
                l(3) =   1
                l(4) =   1
                l(5) =   2
                l(6) =   2
     Q(r) pseudized with 0 coefficients 


     atomic species   valence    mass     pseudopotential
        Cd            12.00   112.41100     Cd( 1.00)
        Te             6.00   127.60000     Te( 1.00)

      6 Sym. Ops. (no inversion) found



   Cartesian axes

     site n.     atom                  positions (alat units)
         1           Te  tau(   1) = (   0.5000000   0.2886751   0.2041241  )
         2           Cd  tau(   2) = (   0.0000000   0.0000000   0.0000000  )

     number of k points=   301  Marzari-Vanderbilt smearing, width (Ry)=  0.0050

     Number of k-points >= 100: set verbosity='high' to print them.

     Dense  grid:    23505 G-vectors     FFT dimensions: (  40,  40,  40)

     Estimated max dynamical RAM per process >      41.13 MB

     Estimated total dynamical RAM >      82.26 MB

     The potential is recalculated from file :
     ./outputs/cdte.save/charge-density

     Starting wfcs are   13 randomized atomic wfcs +    3 random wfcs
     Checking if some PAW data can be deallocated... 

     Band Structure Calculation
     Davidson diagonalization with overlap

     ethr =  5.56E-11,  avg # of iterations = 31.1

     total cpu time spent up to now is      131.9 secs

     End of band structure calculation

     Number of k-points >= 100: set verbosity='high' to print the bands.

     Writing all to output data dir ./outputs/cdte.save/

     init_run     :      1.12s CPU      1.33s WALL (       1 calls)
     electrons    :    104.25s CPU    130.16s WALL (       1 calls)

     Called by init_run:
     wfcinit      :      0.00s CPU      0.00s WALL (       1 calls)
     potinit      :      0.19s CPU      0.21s WALL (       1 calls)
     hinit0       :      0.76s CPU      0.88s WALL (       1 calls)

     Called by electrons:
     c_bands      :    104.25s CPU    130.16s WALL (       1 calls)
     v_of_rho     :      0.02s CPU      0.02s WALL (       1 calls)
     newd         :      0.08s CPU      0.12s WALL (       1 calls)
     PAW_pot      :      0.17s CPU      0.19s WALL (       1 calls)

     Called by c_bands:
     init_us_2    :      0.17s CPU      0.18s WALL (     301 calls)
     init_us_2:cp :      0.17s CPU      0.18s WALL (     301 calls)
     cegterg      :     98.07s CPU    140.59s WALL (     609 calls)

     Called by *egterg:
     cdiaghg      :      5.96s CPU    -12.55s WALL (    9665 calls)
     h_psi        :     70.35s CPU    106.84s WALL (   10274 calls)
     s_psi        :      3.94s CPU      4.13s WALL (   10274 calls)
     g_psi        :      1.37s CPU      1.44s WALL (    9364 calls)

     Called by h_psi:
     h_psi:calbec :      4.24s CPU      4.51s WALL (   10274 calls)
     vloc_psi     :     61.53s CPU     97.52s WALL (   10274 calls)
     add_vuspsi   :      4.24s CPU      4.46s WALL (   10274 calls)

     General routines
     calbec       :      4.21s CPU      4.48s WALL (   10274 calls)
     fft          :      0.38s CPU      0.44s WALL (      12 calls)
     fftw         :     53.85s CPU     89.52s WALL (  158048 calls)
     davcio       :      0.14s CPU      1.23s WALL (     602 calls)

     Parallel routines

     PWSCF        :   1m45.70s CPU   2m14.50s WALL


   This run was terminated on:   5:18: 3  19Dec2024            

=------------------------------------------------------------------------------=
   JOB DONE.
=------------------------------------------------------------------------------=
