
     Program PWSCF v.7.0 starts on 19Dec2024 at  5:14:59 

     This program is part of the open-source Quantum ESPRESSO suite
     for quantum simulation of materials; please cite
         "P. Giannozzi et al., J. Phys.:Condens. Matter 21 395502 (2009);
         "P. Giannozzi et al., J. Phys.:Condens. Matter 29 465901 (2017);
         "P. Giannozzi et al., J. Chem. Phys. 152 154105 (2020);
          URL http://www.quantum-espresso.org", 
     in publications or presentations arising from this work. More details at
     http://www.quantum-espresso.org/quote

     Parallel version (MPI & OpenMP), running on       2 processor cores
     Number of MPI processes:                 2
     Threads/MPI process:                     1

     MPI processes distributed on     1 nodes
     R & G space division:  proc/nbgrp/npool/nimage =       2
     267 MiB available memory on the printing compute node when the environment starts

     Reading input from pw.scf.in

     Current dimensions of program PWSCF are:
     Max number of different atomic species (ntypx) = 10
     Max number of k-points (npk) =  40000
     Max angular momentum in pseudopotentials (lmaxx) =  4
     file Cd.pbe-n-kjpaw_psl.1.0.0.UPF: wavefunction(s)  5S 4D renormalized
     file Te.pbe-n-kjpaw_psl.1.0.0.UPF: wavefunction(s)  5S 5P renormalized

     IMPORTANT: XC functional enforced from input :
     Exchange-correlation= PBE
                           (   1   4   3   4   0   0   0)
     Any further DFT definition will be discarded
     Please, verify this is what you really want

     Message from routine setup:
     using ibrav=0 with symmetry is DISCOURAGED, use correct ibrav instead

     Subspace diagonalization in iterative solution of the eigenvalue problem:
     a serial algorithm will be used


     Parallelization info
     --------------------
     sticks:   dense  smooth     PW     G-vecs:    dense   smooth      PW
     Min         534     534    156                11750    11750    1883
     Max         535     535    157                11755    11755    1884
     Sum        1069    1069    313                23505    23505    3767

     Using Slab Decomposition



     bravais-lattice index     =            0
     lattice parameter (alat)  =       8.8580  a.u.
     unit-cell volume          =     491.4607 (a.u.)^3
     number of atoms/cell      =            2
     number of atomic types    =            2
     number of electrons       =        18.00
     number of Kohn-Sham states=           13
     kinetic-energy cutoff     =      50.0000  Ry
     charge density cutoff     =     200.0000  Ry
     scf convergence threshold =      1.0E-08
     mixing beta               =       0.7000
     number of iterations used =            8  plain     mixing
     Exchange-correlation= PBE
                           (   1   4   3   4   0   0   0)

     celldm(1)=   8.857978  celldm(2)=   0.000000  celldm(3)=   0.000000
     celldm(4)=   0.000000  celldm(5)=   0.000000  celldm(6)=   0.000000

     crystal axes: (cart. coord. in units of alat)
               a(1) = (   1.000000   0.000000   0.000000 )  
               a(2) = (   0.500000   0.866025   0.000000 )  
               a(3) = (   0.500000   0.288675   0.816497 )  

     reciprocal axes: (cart. coord. in units 2 pi/alat)
               b(1) = (  1.000000 -0.577350 -0.408248 )  
               b(2) = (  0.000000  1.154701 -0.408248 )  
               b(3) = (  0.000000  0.000000  1.224745 )  


     PseudoPot. # 1 for Cd read from file:
     ../Pseudopotentials/Cd.pbe-n-kjpaw_psl.1.0.0.UPF
     MD5 check sum: f937b97fdfaed69b45145e9d47a28171
     Pseudo is Projector augmented-wave + core cor, Zval = 12.0
     Generated using &quot;atomic&quot; code by A. Dal Corso  v.6.3
     Shape of augmentation charge: PSQ
     Using radial grid of 1239 points,  6 beta functions with: 
                l(1) =   0
                l(2) =   0
                l(3) =   1
                l(4) =   1
                l(5) =   2
                l(6) =   2
     Q(r) pseudized with 0 coefficients 


     PseudoPot. # 2 for Te read from file:
     ../Pseudopotentials/Te.pbe-n-kjpaw_psl.1.0.0.UPF
     MD5 check sum: 66247bff2bd9dbf220fbb0bf5ab56e9d
     Pseudo is Projector augmented-wave + core cor, Zval =  6.0
     Generated using &quot;atomic&quot; code by A. Dal Corso  v.6.3
     Shape of augmentation charge: PSQ
     Using radial grid of 1245 points,  6 beta functions with: 
                l(1) =   0
                l(2) =   0
                l(3) =   1
                l(4) =   1
                l(5) =   2
                l(6) =   2
     Q(r) pseudized with 0 coefficients 


     atomic species   valence    mass     pseudopotential
        Cd            12.00   112.41100     Cd( 1.00)
        Te             6.00   127.60000     Te( 1.00)

      6 Sym. Ops. (no inversion) found



   Cartesian axes

     site n.     atom                  positions (alat units)
         1           Te  tau(   1) = (   0.5000000   0.2886751   0.2041241  )
         2           Cd  tau(   2) = (   0.0000000   0.0000000   0.0000000  )

     number of k points=    44  Marzari-Vanderbilt smearing, width (Ry)=  0.0050
                       cart. coord. in units 2pi/alat
        k(    1) = (   0.0000000   0.0000000   0.0000000), wk =   0.0058309
        k(    2) = (   0.0000000   0.0000000   0.1749636), wk =   0.0116618
        k(    3) = (   0.0000000   0.0000000   0.3499271), wk =   0.0116618
        k(    4) = (   0.0000000   0.0000000   0.5248907), wk =   0.0116618
        k(    5) = (   0.0000000   0.1649572  -0.0583212), wk =   0.0349854
        k(    6) = (   0.0000000   0.1649572   0.1166424), wk =   0.0349854
        k(    7) = (   0.0000000   0.1649572   0.2916059), wk =   0.0349854
        k(    8) = (   0.0000000   0.1649572   0.4665695), wk =   0.0349854
        k(    9) = (   0.0000000   0.1649572  -0.5832118), wk =   0.0349854
        k(   10) = (   0.0000000   0.1649572  -0.4082483), wk =   0.0349854
        k(   11) = (   0.0000000   0.1649572  -0.2332847), wk =   0.0349854
        k(   12) = (   0.0000000   0.3299144  -0.1166424), wk =   0.0349854
        k(   13) = (   0.0000000   0.3299144   0.0583212), wk =   0.0349854
        k(   14) = (   0.0000000   0.3299144   0.2332847), wk =   0.0349854
        k(   15) = (   0.0000000   0.3299144   0.4082483), wk =   0.0349854
        k(   16) = (   0.0000000   0.3299144  -0.6415330), wk =   0.0349854
        k(   17) = (   0.0000000   0.3299144  -0.4665695), wk =   0.0349854
        k(   18) = (   0.0000000   0.3299144  -0.2916059), wk =   0.0349854
        k(   19) = (   0.0000000   0.4948717  -0.1749636), wk =   0.0349854
        k(   20) = (   0.0000000   0.4948717   0.0000000), wk =   0.0349854
        k(   21) = (   0.0000000   0.4948717   0.1749636), wk =   0.0349854
        k(   22) = (   0.0000000   0.4948717   0.3499271), wk =   0.0349854
        k(   23) = (   0.0000000   0.4948717  -0.6998542), wk =   0.0349854
        k(   24) = (   0.0000000   0.4948717  -0.5248907), wk =   0.0349854
        k(   25) = (   0.0000000   0.4948717  -0.3499271), wk =   0.0349854
        k(   26) = (   0.1428571   0.2474358  -0.1749636), wk =   0.0699708
        k(   27) = (   0.1428571   0.2474358   0.0000000), wk =   0.0349854
        k(   28) = (   0.1428571   0.2474358   0.3499271), wk =   0.0699708
        k(   29) = (   0.1428571   0.2474358  -0.6998542), wk =   0.0699708
        k(   30) = (   0.1428571   0.4123930  -0.2332847), wk =   0.0699708
        k(   31) = (   0.1428571   0.4123930  -0.0583212), wk =   0.0699708
        k(   32) = (   0.1428571   0.4123930   0.1166424), wk =   0.0699708
        k(   33) = (   0.1428571   0.4123930   0.2916059), wk =   0.0699708
        k(   34) = (   0.1428571   0.4123930  -0.7581754), wk =   0.0699708
        k(   35) = (   0.1428571   0.4123930  -0.5832118), wk =   0.0699708
        k(   36) = (   0.1428571   0.4123930  -0.4082483), wk =   0.0699708
        k(   37) = (   0.1428571  -0.5773503   0.1166424), wk =   0.0699708
        k(   38) = (   0.1428571  -0.5773503   0.4665695), wk =   0.0699708
        k(   39) = (   0.1428571  -0.5773503   0.6415330), wk =   0.0699708
        k(   40) = (   0.1428571  -0.5773503  -0.4082483), wk =   0.0349854
        k(   41) = (   0.2857143  -0.6598289   0.0583212), wk =   0.0699708
        k(   42) = (   0.2857143  -0.6598289   0.2332847), wk =   0.0699708
        k(   43) = (   0.2857143  -0.6598289   0.4082483), wk =   0.0349854
        k(   44) = (   0.2857143  -0.6598289  -0.2916059), wk =   0.0699708

     Dense  grid:    23505 G-vectors     FFT dimensions: (  40,  40,  40)

     Estimated max dynamical RAM per process >      59.67 MB

     Estimated total dynamical RAM >     119.34 MB

     Initial potential from superposition of free atoms

     starting charge      17.9949, renormalised to      18.0000
     Starting wfcs are   13 randomized atomic wfcs
     Checking if some PAW data can be deallocated... 

     total cpu time spent up to now is        2.4 secs

     per-process dynamical memory:    54.2 Mb

     Self-consistent Calculation

     iteration #  1     ecut=    50.00 Ry     beta= 0.70
     Davidson diagonalization with overlap
     ethr =  1.00E-02,  avg # of iterations =  4.2

     Threshold (ethr) on eigenvalues was too large:
     Diagonalizing with lowered threshold

     Davidson diagonalization with overlap
     ethr =  2.09E-04,  avg # of iterations =  3.3

     total cpu time spent up to now is        7.8 secs

     total energy              =    -744.47842457 Ry
     estimated scf accuracy    <       0.04044581 Ry

     iteration #  2     ecut=    50.00 Ry     beta= 0.70
     Davidson diagonalization with overlap
     ethr =  2.25E-04,  avg # of iterations =  3.0

     total cpu time spent up to now is       10.5 secs

     total energy              =    -744.48683977 Ry
     estimated scf accuracy    <       0.01236332 Ry

     iteration #  3     ecut=    50.00 Ry     beta= 0.70
     Davidson diagonalization with overlap
     ethr =  6.87E-05,  avg # of iterations =  3.0

     total cpu time spent up to now is       13.2 secs

     total energy              =    -744.49043820 Ry
     estimated scf accuracy    <       0.00063333 Ry

     iteration #  4     ecut=    50.00 Ry     beta= 0.70
     Davidson diagonalization with overlap
     ethr =  3.52E-06,  avg # of iterations =  4.2

     total cpu time spent up to now is        2.7 secs

     total energy              =    -744.49071396 Ry
     estimated scf accuracy    <       0.00003509 Ry

     iteration #  5     ecut=    50.00 Ry     beta= 0.70
     Davidson diagonalization with overlap
     ethr =  1.95E-07,  avg # of iterations =  2.5

     total cpu time spent up to now is        5.3 secs

     total energy              =    -744.49072227 Ry
     estimated scf accuracy    <       0.00000111 Ry

     iteration #  6     ecut=    50.00 Ry     beta= 0.70
     Davidson diagonalization with overlap
     ethr =  6.19E-09,  avg # of iterations =  3.3

     total cpu time spent up to now is        8.0 secs

     total energy              =    -744.49072278 Ry
     estimated scf accuracy    <       0.00000008 Ry

     iteration #  7     ecut=    50.00 Ry     beta= 0.70
     Davidson diagonalization with overlap
     ethr =  4.34E-10,  avg # of iterations =  2.9

     total cpu time spent up to now is       10.6 secs

     End of self-consistent calculation

          k = 0.0000 0.0000 0.0000 (  2891 PWs)   bands (ev):

    -6.4598  -3.6880  -3.6880  -3.6880  -3.4758  -3.4758   4.3540   4.3540
     4.3540   4.9221   9.0027   9.0027   9.0027

          k = 0.0000 0.0000 0.1750 (  2899 PWs)   bands (ev):

    -6.3957  -3.6764  -3.6764  -3.6328  -3.4764  -3.4764   2.9690   4.2024
     4.2024   5.9289   8.9857   9.2469   9.2469

          k = 0.0000 0.0000 0.3499 (  2926 PWs)   bands (ev):

    -6.2517  -3.6531  -3.6531  -3.4747  -3.4747  -3.4545   1.4486   3.9064
     3.9064   6.2231   9.5671   9.5671   9.9431

          k = 0.0000 0.0000 0.5249 (  2938 PWs)   bands (ev):

    -6.1378  -3.6381  -3.6381  -3.4688  -3.4688  -3.2203   0.4417   3.7005
     3.7005   6.1218   9.5843   9.5843  11.2182

          k = 0.0000 0.1650-0.0583 (  2899 PWs)   bands (ev):

    -6.3957  -3.6764  -3.6764  -3.6328  -3.4764  -3.4764   2.9690   4.2024
     4.2024   5.9289   8.9857   9.2469   9.2469

          k = 0.0000 0.1650 0.1166 (  2918 PWs)   bands (ev):

    -6.3745  -3.6650  -3.6650  -3.6309  -3.4816  -3.4708   2.9240   3.9458
     3.9458   6.3816   8.3138   9.6608   9.6608

          k = 0.0000 0.1650 0.2916 (  2922 PWs)   bands (ev):

    -6.2577  -3.6468  -3.6395  -3.5234  -3.4666  -3.4566   1.7911   3.5941
     3.6147   6.9082   8.3934  10.0245  10.1763

          k = 0.0000 0.1650 0.4666 (  2927 PWs)   bands (ev):

    -6.1351  -3.6313  -3.6221  -3.4902  -3.4640  -3.2468   0.7224   3.1799
     3.4463   6.8953   9.0474  10.1971  10.4475

          k = 0.0000 0.1650-0.5832 (  2940 PWs)   bands (ev):

    -6.0981  -3.6258  -3.6221  -3.4765  -3.4700  -3.1425   0.3915   2.9370
     3.5291   6.8611   9.2359   9.9905  11.2636

          k = 0.0000 0.1650-0.4082 (  2931 PWs)   bands (ev):

    -6.1724  -3.6383  -3.6316  -3.4805  -3.4760  -3.3217   1.0310   3.0112
     3.8181   6.9034   9.4377   9.7755  10.1160

          k = 0.0000 0.1650-0.2333 (  2924 PWs)   bands (ev):

    -6.3051  -3.6636  -3.6515  -3.5453  -3.4823  -3.4667   2.1294   3.5028
     4.1340   6.6223   8.9064   9.4002   9.8353

          k = 0.0000 0.3299-0.1166 (  2926 PWs)   bands (ev):

    -6.2517  -3.6531  -3.6531  -3.4747  -3.4747  -3.4545   1.4486   3.9064
     3.9064   6.2231   9.5671   9.5671   9.9431

          k = 0.0000 0.3299 0.0583 (  2922 PWs)   bands (ev):

    -6.2577  -3.6468  -3.6395  -3.5234  -3.4666  -3.4567   1.7911   3.5941
     3.6147   6.9082   8.3933  10.0245  10.1763

          k = 0.0000 0.3299 0.2333 (  2914 PWs)   bands (ev):

    -6.1849  -3.6095  -3.6095  -3.5405  -3.4594  -3.3894   1.4793   3.2321
     3.2321   7.1893   7.6484  11.1336  11.1336

          k = 0.0000 0.3299 0.4082 (  2938 PWs)   bands (ev):

    -6.0906  -3.5976  -3.5875  -3.5269  -3.4568  -3.2091   0.8152   2.7366
     3.0307   7.2559   7.9660  10.7505  11.5138

          k = 0.0000 0.3299-0.6415 (  2938 PWs)   bands (ev):

    -6.0460  -3.6027  -3.5869  -3.5028  -3.4648  -3.0590   0.4834   2.2082
     3.1168   7.3208   9.0392  10.8873  11.1769

          k = 0.0000 0.3299-0.4666 (  2942 PWs)   bands (ev):

    -6.0816  -3.6132  -3.6079  -3.4837  -3.4777  -3.1344   0.6774   2.2015
     3.4468   7.4254   9.4939  10.4229  10.5377

          k = 0.0000 0.3299-0.2916 (  2931 PWs)   bands (ev):

    -6.1724  -3.6383  -3.6316  -3.4805  -3.4760  -3.3217   1.0310   3.0112
     3.8181   6.9034   9.4377   9.7755  10.1160

          k = 0.0000 0.4949-0.1750 (  2938 PWs)   bands (ev):

    -6.1378  -3.6381  -3.6381  -3.4688  -3.4688  -3.2203   0.4417   3.7005
     3.7005   6.1218   9.5843   9.5843  11.2182

          k = 0.0000 0.4949 0.0000 (  2927 PWs)   bands (ev):

    -6.1351  -3.6313  -3.6221  -3.4902  -3.4640  -3.2468   0.7224   3.1799
     3.4463   6.8953   9.0474  10.1971  10.4475

          k = 0.0000 0.4949 0.1750 (  2938 PWs)   bands (ev):

    -6.0906  -3.5976  -3.5875  -3.5269  -3.4568  -3.2091   0.8152   2.7366
     3.0307   7.2559   7.9660  10.7505  11.5138

          k = 0.0000 0.4949 0.3499 (  2946 PWs)   bands (ev):

    -6.0386  -3.5617  -3.5617  -3.5523  -3.4505  -3.1154   0.5066   2.7685
     2.7685   7.0063   7.2340  12.4758  12.7773

          k = 0.0000 0.4949-0.6999 (  2936 PWs)   bands (ev):

    -6.0194  -3.5769  -3.5611  -3.5317  -3.4543  -3.0378   0.3976   2.3902
     2.8028   7.1360   7.7731  12.0950  12.4931

          k = 0.0000 0.4949-0.5249 (  2938 PWs)   bands (ev):

    -6.0460  -3.6027  -3.5869  -3.5028  -3.4648  -3.0590   0.4834   2.2082
     3.1168   7.3208   9.0392  10.8873  11.1770

          k = 0.0000 0.4949-0.3499 (  2940 PWs)   bands (ev):

    -6.0981  -3.6258  -3.6221  -3.4765  -3.4700  -3.1425   0.3914   2.9370
     3.5291   6.8611   9.2359   9.9905  11.2635

          k = 0.1429 0.2474-0.1750 (  2922 PWs)   bands (ev):

    -6.2577  -3.6468  -3.6395  -3.5234  -3.4666  -3.4567   1.7911   3.5941
     3.6147   6.9082   8.3933  10.0245  10.1763

          k = 0.1429 0.2474 0.0000 (  2924 PWs)   bands (ev):

    -6.3051  -3.6636  -3.6515  -3.5453  -3.4823  -3.4667   2.1294   3.5028
     4.1340   6.6223   8.9064   9.4002   9.8353

          k = 0.1429 0.2474 0.3499 (  2939 PWs)   bands (ev):

    -6.1525  -3.6237  -3.6150  -3.5077  -3.4647  -3.3090   1.1408   2.7988
     3.4521   7.4751   8.4377   9.7926  10.9711

          k = 0.1429 0.2474-0.6999 (  2941 PWs)   bands (ev):

    -6.0705  -3.6106  -3.6008  -3.4942  -3.4684  -3.1119   0.5668   2.4047
     3.1674   7.6388   8.9939   9.9253  11.4445

          k = 0.1429 0.4124-0.2333 (  2927 PWs)   bands (ev):

    -6.1351  -3.6313  -3.6221  -3.4902  -3.4640  -3.2468   0.7224   3.1799
     3.4464   6.8953   9.0474  10.1971  10.4475

          k = 0.1429 0.4124-0.0583 (  2931 PWs)   bands (ev):

    -6.1724  -3.6383  -3.6316  -3.4805  -3.4760  -3.3217   1.0310   3.0112
     3.8181   6.9034   9.4377   9.7755  10.1160

          k = 0.1429 0.4124 0.1166 (  2939 PWs)   bands (ev):

    -6.1525  -3.6237  -3.6150  -3.5077  -3.4647  -3.3090   1.1408   2.7988
     3.4521   7.4751   8.4377   9.7926  10.9711

          k = 0.1429 0.4124 0.2916 (  2938 PWs)   bands (ev):

    -6.0906  -3.5976  -3.5875  -3.5269  -3.4568  -3.2091   0.8152   2.7366
     3.0307   7.2559   7.9660  10.7505  11.5138

          k = 0.1429 0.4124-0.7582 (  2934 PWs)   bands (ev):

    -6.0353  -3.5825  -3.5804  -3.5184  -3.4598  -3.0639   0.5166   2.4401
     2.6893   7.7321   8.0149  10.6421  12.1682

          k = 0.1429 0.4124-0.5832 (  2939 PWs)   bands (ev):

    -6.0270  -3.5935  -3.5814  -3.4996  -3.4709  -3.0138   0.4865   2.1256
     2.7513   7.9418   9.0808  10.1883  11.0859

          k = 0.1429 0.4124-0.4082 (  2941 PWs)   bands (ev):

    -6.0705  -3.6106  -3.6008  -3.4942  -3.4684  -3.1119   0.5668   2.4047
     3.1674   7.6388   8.9939   9.9253  11.4445

          k = 0.1429-0.5774 0.1166 (  2940 PWs)   bands (ev):

    -6.0981  -3.6258  -3.6221  -3.4765  -3.4700  -3.1425   0.3914   2.9370
     3.5291   6.8612   9.2359   9.9905  11.2635

          k = 0.1429-0.5774 0.4666 (  2941 PWs)   bands (ev):

    -6.0705  -3.6106  -3.6008  -3.4942  -3.4684  -3.1119   0.5667   2.4047
     3.1674   7.6388   8.9939   9.9253  11.4445

          k = 0.1429-0.5774 0.6415 (  2934 PWs)   bands (ev):

    -6.0353  -3.5825  -3.5804  -3.5184  -3.4598  -3.0639   0.5166   2.4401
     2.6893   7.7321   8.0149  10.6421  12.1682

          k = 0.1429-0.5774-0.4082 (  2936 PWs)   bands (ev):

    -6.0194  -3.5769  -3.5611  -3.5317  -3.4543  -3.0378   0.3976   2.3902
     2.8028   7.1360   7.7731  12.0950  12.4931

          k = 0.2857-0.6598 0.0583 (  2938 PWs)   bands (ev):

    -6.0460  -3.6027  -3.5869  -3.5028  -3.4648  -3.0590   0.4834   2.2082
     3.1168   7.3208   9.0392  10.8873  11.1769

          k = 0.2857-0.6598 0.2333 (  2941 PWs)   bands (ev):

    -6.0705  -3.6106  -3.6008  -3.4942  -3.4684  -3.1119   0.5667   2.4047
     3.1674   7.6388   8.9939   9.9253  11.4445

          k = 0.2857-0.6598 0.4082 (  2942 PWs)   bands (ev):

    -6.0816  -3.6132  -3.6079  -3.4837  -3.4777  -3.1344   0.6774   2.2015
     3.4468   7.4254   9.4939  10.4229  10.5377

          k = 0.2857-0.6598-0.2916 (  2939 PWs)   bands (ev):

    -6.0270  -3.5935  -3.5814  -3.4996  -3.4709  -3.0138   0.4865   2.1256
     2.7513   7.9418   9.0808  10.1883  11.0859

     the Fermi energy is     4.6615 ev

!    total energy              =    -744.49072281 Ry

     total all-electron energy =    -24778.631733 Ry
     estimated scf accuracy    <          6.6E-09 Ry
     smearing contrib. (-TS)   =       0.00000000 Ry
     internal energy E=F+TS    =    -744.49072281 Ry

     The total energy is F=E-TS. E is the sum of the following terms:
     one-electron contribution =     -46.48986743 Ry
     hartree contribution      =      36.93980854 Ry
     xc contribution           =     -39.43531709 Ry
     ewald contribution        =     -75.09767048 Ry
     one-center paw contrib.   =    -620.40767633 Ry

     convergence has been achieved in   7 iterations

     Forces acting on atoms (cartesian axes, Ry/au):

     atom    1 type  2   force =     0.00000000    0.00000000    0.00001276
     atom    2 type  1   force =     0.00000000    0.00000000   -0.00001276

     Total force =     0.000018     Total SCF correction =     0.000023
     SCF correction compared to forces is large: reduce conv_thr to get better values


     Computing stress (Cartesian axis) and pressure

          total   stress  (Ry/bohr**3)                   (kbar)     P=       -7.93
  -0.00005394   0.00000000  -0.00000000           -7.94        0.00       -0.00
   0.00000000  -0.00005394   0.00000000            0.00       -7.94        0.00
   0.00000000   0.00000000  -0.00005391            0.00        0.00       -7.93


     Writing all to output data dir ./outputs/cdte.save/

     init_run     :      1.61s CPU      2.10s WALL (       1 calls)
     electrons    :     17.71s CPU      8.24s WALL (       1 calls)
     forces       :      0.27s CPU      0.29s WALL (       1 calls)
     stress       :      1.41s CPU      1.50s WALL (       1 calls)

     Called by init_run:
     wfcinit      :      0.70s CPU      0.75s WALL (       1 calls)
     potinit      :      0.21s CPU      0.32s WALL (       1 calls)
     hinit0       :      0.55s CPU      0.82s WALL (       1 calls)

     Called by electrons:
     c_bands      :     13.08s CPU      2.68s WALL (       8 calls)
     sum_band     :      3.05s CPU      3.63s WALL (       8 calls)
     v_of_rho     :      0.13s CPU      0.14s WALL (       8 calls)
     newd         :      0.57s CPU      0.71s WALL (       8 calls)
     PAW_pot      :      1.16s CPU      1.40s WALL (       8 calls)
     mix_rho      :      0.01s CPU      0.01s WALL (       8 calls)

     Called by c_bands:
     init_us_2    :      0.42s CPU      0.50s WALL (     836 calls)
     init_us_2:cp :      0.41s CPU      0.50s WALL (     836 calls)
     cegterg      :     12.38s CPU      1.77s WALL (     352 calls)

     Called by *egterg:
     cdiaghg      :      0.40s CPU      0.48s WALL (    1472 calls)
     h_psi        :     10.17s CPU     -1.11s WALL (    1560 calls)
     s_psi        :      0.58s CPU      0.69s WALL (    1560 calls)
     g_psi        :      0.14s CPU      0.17s WALL (    1164 calls)

     Called by h_psi:
     h_psi:calbec :      0.65s CPU      0.83s WALL (    1560 calls)
     vloc_psi     :      8.87s CPU     -2.73s WALL (    1560 calls)
     add_vuspsi   :      0.60s CPU      0.74s WALL (    1560 calls)

     General routines
     calbec       :      1.01s CPU      1.25s WALL (    2132 calls)
     fft          :      0.47s CPU      0.55s WALL (     114 calls)
     ffts         :      0.00s CPU      0.00s WALL (       8 calls)
     fftw         :      9.30s CPU     -2.19s WALL (   30786 calls)

     Parallel routines

     PWSCF        :     21.11s CPU     12.69s WALL


   This run was terminated on:   5:15:12  19Dec2024            

=------------------------------------------------------------------------------=
   JOB DONE.
=------------------------------------------------------------------------------=
