
     Program BANDS v.7.0 starts on  5Jan2025 at 22: 9:41 

     This program is part of the open-source Quantum ESPRESSO suite
     for quantum simulation of materials; please cite
         "P. Giannozzi et al., J. Phys.:Condens. Matter 21 395502 (2009);
         "P. Giannozzi et al., J. Phys.:Condens. Matter 29 465901 (2017);
         "P. Giannozzi et al., J. Chem. Phys. 152 154105 (2020);
          URL http://www.quantum-espresso.org", 
     in publications or presentations arising from this work. More details at
     http://www.quantum-espresso.org/quote

     Parallel version (MPI & OpenMP), running on       2 processor cores
     Number of MPI processes:                 2
     Threads/MPI process:                     1

     MPI processes distributed on     1 nodes
     R & G space division:  proc/nbgrp/npool/nimage =       2
     491 MiB available memory on the printing compute node when the environment starts


     Reading xml data from directory:

     ./outputs/gaalas_sl.save/
     file Al.pbe-n-kjpaw_psl.1.0.0.UPF: wavefunction(s)  3S 3P renormalized
     file Ga.pbe-dn-kjpaw_psl.1.0.0.UPF: wavefunction(s)  4S renormalized

     IMPORTANT: XC functional enforced from input :
     Exchange-correlation= PBE
                           (   1   4   3   4   0   0   0)
     Any further DFT definition will be discarded
     Please, verify this is what you really want


     Parallelization info
     --------------------
     sticks:   dense  smooth     PW     G-vecs:    dense   smooth      PW
     Min         546     546    158                67962    67962   10514
     Max         547     547    159                67965    67965   10519
     Sum        1093    1093    317               135927   135927   21033

     Using Slab Decomposition


     Check: negative core charge=   -0.000009
     Reading collected, re-writing distributed wavefunctions
     high-symmetry point:  0.5000 0.5000 0.1000   x coordinate   0.0000
     high-symmetry point:  0.0000 0.0000 0.0000   x coordinate   0.7141
     high-symmetry point:  0.5000 0.0000 0.1000   x coordinate   1.2240
     high-symmetry point:  0.0000 0.0000 0.0000   x coordinate   1.7339

     Plottable bands (eV) written to file GaAlAs_sl_bands.dat.gnu
     Bands written to file GaAlAs_sl_bands.dat

 **************************************************************************

                    xk=(   0.50000,   0.50000,   0.10000  )

     point group D_2d (-42m)
     there are  5 classes
     the character table:

       E     2S4   C2    2C2'  2s_d 
A_1    1.00  1.00  1.00  1.00  1.00
A_2    1.00  1.00  1.00 -1.00 -1.00
B_1    1.00 -1.00  1.00  1.00 -1.00
B_2    1.00 -1.00  1.00 -1.00  1.00
E      2.00  0.00 -2.00  0.00  0.00

     the symmetry operations in each class and the name of the first element:

     E        1
                                                                 
     2S4      7    8
                                                                 
     C2       2
                                                                 
     2C2'     3    4
                                                                 
     2s_d     5    6
                                                                 

     Band symmetry, D_2d (-42m) point group:

     e(  1 -  2) =     -8.94085  eV     2   --> A_1  X_1  W_1  
     e(  1 -  2) =     -8.94085  eV     2   --> B_2  X_3  W_2  
     e(  3 -  4) =     -8.93930  eV     2   --> A_1  X_1  W_1  
     e(  3 -  4) =     -8.93930  eV     2   --> B_2  X_3  W_2  
     e(  5 -  6) =     -8.93910  eV     2   --> A_1  X_1  W_1  
     e(  5 -  6) =     -8.93910  eV     2   --> B_2  X_3  W_2  
     e(  7 -  8) =     -8.93766  eV     2   --> A_1  X_1  W_1  
     e(  7 -  8) =     -8.93766  eV     2   --> B_2  X_3  W_2  
     e(  9 - 10) =     -8.93739  eV     2   --> A_1  X_1  W_1  
     e(  9 - 10) =     -8.93739  eV     2   --> B_2  X_3  W_2  
     e( 11 - 12) =     -8.91122  eV     2   --> E    X_5  W_3  
     e( 13 - 14) =     -8.91068  eV     2   --> E    X_5  W_3  
     e( 15 - 16) =     -8.91056  eV     2   --> E    X_5  W_3  
     e( 17 - 18) =     -8.91046  eV     2   --> E    X_5  W_3  
     e( 19 - 20) =     -8.90963  eV     2   --> E    X_5  W_3  
     e( 21 - 22) =     -8.87675  eV     2   --> A_2  X_4  W_2' 
     e( 21 - 22) =     -8.87675  eV     2   --> B_1  X_2  W_1' 
     e( 23 - 24) =     -8.87636  eV     2   --> A_2  X_4  W_2' 
     e( 23 - 24) =     -8.87636  eV     2   --> B_1  X_2  W_1' 
     e( 25 - 26) =     -8.87603  eV     2   --> A_2  X_4  W_2' 
     e( 25 - 26) =     -8.87603  eV     2   --> B_1  X_2  W_1' 
     e( 27 - 28) =     -8.87579  eV     2   --> A_2  X_4  W_2' 
     e( 27 - 28) =     -8.87579  eV     2   --> B_1  X_2  W_1' 
     e( 29 - 30) =     -8.87559  eV     2   --> A_2  X_4  W_2' 
     e( 29 - 30) =     -8.87559  eV     2   --> B_1  X_2  W_1' 
     e( 31 - 32) =     -8.83255  eV     2   --> E    X_5  W_3  
     e( 33 - 34) =     -8.83229  eV     2   --> E    X_5  W_3  
     e( 35 - 36) =     -8.83124  eV     2   --> E    X_5  W_3  
     e( 37 - 38) =     -8.83108  eV     2   --> E    X_5  W_3  
     e( 39 - 46) =     -8.83093  eV     8   -->   4 E    X_5  W_3  
     e( 47 - 48) =     -8.82993  eV     2   --> E    X_5  W_3  
     e( 49 - 50) =     -8.82936  eV     2   --> E    X_5  W_3  
     e( 51 - 52) =     -5.12671  eV     2   --> E    X_5  W_3  
     e( 53 - 54) =     -5.12633  eV     2   --> E    X_5  W_3  
     e( 55 - 56) =     -5.07322  eV     2   --> E    X_5  W_3  
     e( 57 - 58) =     -5.07298  eV     2   --> E    X_5  W_3  
     e( 59 - 60) =     -5.03878  eV     2   --> E    X_5  W_3  
     e( 61 - 62) =     -4.88641  eV     2   --> A_1  X_1  W_1  
     e( 61 - 62) =     -4.88641  eV     2   --> B_2  X_3  W_2  
     e( 63 - 64) =     -4.88603  eV     2   --> A_1  X_1  W_1  
     e( 63 - 64) =     -4.88603  eV     2   --> B_2  X_3  W_2  
     e( 65 - 66) =     -4.82737  eV     2   --> A_1  X_1  W_1  
     e( 65 - 66) =     -4.82737  eV     2   --> B_2  X_3  W_2  
     e( 67 - 68) =     -4.82716  eV     2   --> A_1  X_1  W_1  
     e( 67 - 68) =     -4.82716  eV     2   --> B_2  X_3  W_2  
     e( 69 - 70) =     -4.78998  eV     2   --> A_1  X_1  W_1  
     e( 69 - 70) =     -4.78998  eV     2   --> B_2  X_3  W_2  
     e( 71 - 72) =     -0.63881  eV     2   --> E    X_5  W_3  
     e( 73 - 74) =     -0.38947  eV     2   --> E    X_5  W_3  
     e( 75 - 76) =     -0.38925  eV     2   --> E    X_5  W_3  
     e( 77 - 78) =     -0.00829  eV     2   --> A_1  X_1  W_1  
     e( 77 - 78) =     -0.00829  eV     2   --> B_2  X_3  W_2  
     e( 79 - 80) =      0.13804  eV     2   --> E    X_5  W_3  
     e( 81 - 82) =      0.13837  eV     2   --> E    X_5  W_3  
     e( 83 - 84) =      0.27793  eV     2   --> A_1  X_1  W_1  
     e( 83 - 84) =      0.27793  eV     2   --> B_2  X_3  W_2  
     e( 85 - 86) =      0.27814  eV     2   --> A_1  X_1  W_1  
     e( 85 - 86) =      0.27814  eV     2   --> B_2  X_3  W_2  
     e( 87 - 88) =      0.95350  eV     2   --> A_1  X_1  W_1  
     e( 87 - 88) =      0.95350  eV     2   --> B_2  X_3  W_2  
     e( 89 - 90) =      0.95376  eV     2   --> A_1  X_1  W_1  
     e( 89 - 90) =      0.95376  eV     2   --> B_2  X_3  W_2  
     e( 91 - 92) =      2.90277  eV     2   --> A_1  X_1  W_1  
     e( 91 - 92) =      2.90277  eV     2   --> B_2  X_3  W_2  
     e( 93 - 94) =      2.90304  eV     2   --> A_1  X_1  W_1  
     e( 93 - 94) =      2.90304  eV     2   --> B_2  X_3  W_2  
     e( 95 - 96) =      2.90882  eV     2   --> E    X_5  W_3  
     e( 97 - 98) =      2.90914  eV     2   --> E    X_5  W_3  
     e( 99 -100) =      4.01356  eV     2   --> E    X_5  W_3  
     e(101 -102) =      4.01372  eV     2   --> E    X_5  W_3  
     e(103 -104) =      4.05551  eV     2   --> A_1  X_1  W_1  
     e(103 -104) =      4.05551  eV     2   --> B_2  X_3  W_2  
     e(105 -106) =      4.05566  eV     2   --> A_1  X_1  W_1  
     e(105 -106) =      4.05566  eV     2   --> B_2  X_3  W_2  
     e(107 -108) =      4.75258  eV     2   --> E    X_5  W_3  
     e(109 -110) =      4.75295  eV     2   --> E    X_5  W_3  
     e(111 -112) =      4.78111  eV     2   --> E    X_5  W_3  
     e(113 -114) =      4.78132  eV     2   --> E    X_5  W_3  
     e(115 -116) =      4.78289  eV     2   --> A_1  X_1  W_1  
     e(115 -116) =      4.78289  eV     2   --> B_2  X_3  W_2  
     e(117 -118) =      4.79690  eV     2   --> A_2  X_4  W_2' 
     e(117 -118) =      4.79690  eV     2   --> B_1  X_2  W_1' 
     e(119 -120) =      4.79727  eV     2   --> A_2  X_4  W_2' 
     e(119 -120) =      4.79727  eV     2   --> B_1  X_2  W_1' 
     e(121 -122) =      4.79884  eV     2   --> E    X_5  W_3  
     e(123 -124) =      4.86190  eV     2   --> A_2  X_4  W_2' 
     e(123 -124) =      4.86190  eV     2   --> B_1  X_2  W_1' 
     e(125 -126) =      4.86215  eV     2   --> A_2  X_4  W_2' 
     e(125 -126) =      4.86215  eV     2   --> B_1  X_2  W_1' 
     e(127 -128) =      4.90128  eV     2   --> A_2  X_4  W_2' 
     e(127 -128) =      4.90128  eV     2   --> B_1  X_2  W_1' 
     e(129 -130) =      4.90274  eV     2   --> E    X_5  W_3  
     e(131 -132) =      6.88761  eV     2   --> E    X_5  W_3  
     e(133 -134) =      7.76871  eV     2   --> E    X_5  W_3  
     e(135 -136) =      7.76881  eV     2   --> E    X_5  W_3  
     e(137 -138) =      7.90010  eV     2   --> A_1  X_1  W_1  
     e(137 -138) =      7.90010  eV     2   --> B_2  X_3  W_2  
     e(139 -140) =      8.51983  eV     2   --> A_1  X_1  W_1  
     e(139 -140) =      8.51983  eV     2   --> B_2  X_3  W_2  
     e(141 -142) =      8.52001  eV     2   --> A_1  X_1  W_1  
     e(141 -142) =      8.52001  eV     2   --> B_2  X_3  W_2  
     e(143 -144) =      8.69583  eV     2   --> E    X_5  W_3  
     e(145 -146) =      8.69616  eV     2   --> E    X_5  W_3  
     e(147 -148) =      8.98828  eV     2   --> A_1  X_1  W_1  
     e(147 -148) =      8.98828  eV     2   --> B_2  X_3  W_2  
     e(149 -150) =      8.98862  eV     2   --> A_1  X_1  W_1  
     e(149 -150) =      8.98862  eV     2   --> B_2  X_3  W_2  
     e(151 -152) =     10.25599  eV     2   --> A_1  X_1  W_1  
     e(151 -152) =     10.25599  eV     2   --> B_2  X_3  W_2  
     e(153 -154) =     10.25609  eV     2   --> A_1  X_1  W_1  
     e(153 -154) =     10.25609  eV     2   --> B_2  X_3  W_2  
     e(155 -156) =     10.29869  eV     2   --> A_1  X_1  W_1  
     e(155 -156) =     10.29869  eV     2   --> B_2  X_3  W_2  

 **************************************************************************

 **************************************************************************

                    xk=(   0.45000,   0.45000,   0.09000  )

     point group C_s (m)    
     there are  2 classes
     the character table:

       E     s    
A'     1.00  1.00
A''    1.00 -1.00

     the symmetry operations in each class and the name of the first element:

     E        1
                                                                 
     s        2
                                                                 

     Band symmetry, C_s (m)     point group:

     e(  1 -  1) =     -8.94054  eV     1   --> A'             
     e(  2 -  2) =     -8.94038  eV     1   --> A'             
     e(  3 -  3) =     -8.93950  eV     1   --> A'             
     e(  4 -  5) =     -8.93924  eV     2   -->   2 A'             
     e(  6 -  6) =     -8.93892  eV     1   --> A'             
     e(  7 -  8) =     -8.93754  eV     2   -->   2 A'             
     e(  9 -  9) =     -8.93724  eV     1   --> A'             
     e( 10 - 10) =     -8.93711  eV     1   --> A'             
     e( 11 - 11) =     -8.91103  eV     1   --> A''            
     e( 12 - 12) =     -8.91085  eV     1   --> A''            
     e( 13 - 13) =     -8.91072  eV     1   --> A''            
     e( 14 - 14) =     -8.91056  eV     1   --> A''            
     e( 15 - 16) =     -8.91044  eV     2   -->   2 A'             
     e( 17 - 17) =     -8.91026  eV     1   --> A'             
     e( 18 - 18) =     -8.91004  eV     1   --> A'             
     e( 19 - 19) =     -8.90977  eV     1   --> A''            
     e( 20 - 20) =     -8.90927  eV     1   --> A'             
     e( 21 - 21) =     -8.87650  eV     1   --> A''            
     e( 22 - 23) =     -8.87635  eV     2   -->   2 A''            
     e( 24 - 24) =     -8.87624  eV     1   --> A''            
     e( 25 - 25) =     -8.87606  eV     1   --> A''            
     e( 26 - 26) =     -8.87589  eV     1   --> A''            
     e( 27 - 30) =     -8.87572  eV     4   -->   4 A''            
     e( 31 - 32) =     -8.83279  eV     2   -->   2 A'             
     e( 33 - 33) =     -8.83234  eV     1   --> A''            
     e( 34 - 34) =     -8.83222  eV     1   --> A''            
     e( 35 - 35) =     -8.83157  eV     1   --> A'             
     e( 36 - 41) =     -8.83120  eV     6   -->   5 A'             
     e( 36 - 41) =     -8.83120  eV     6   --> A''            
     e( 42 - 45) =     -8.83071  eV     4   -->   4 A''            
     e( 46 - 46) =     -8.83044  eV     1   --> A''            
     e( 47 - 47) =     -8.83011  eV     1   --> A'             
     e( 48 - 49) =     -8.82969  eV     2   --> A'             
     e( 48 - 49) =     -8.82969  eV     2   --> A''            
     e( 50 - 50) =     -8.82931  eV     1   --> A''            
     e( 51 - 51) =     -5.26053  eV     1   --> A'             
     e( 52 - 52) =     -5.25431  eV     1   --> A'             
     e( 53 - 53) =     -5.15850  eV     1   --> A'             
     e( 54 - 54) =     -5.14550  eV     1   --> A'             
     e( 55 - 55) =     -5.11221  eV     1   --> A''            
     e( 56 - 56) =     -5.10880  eV     1   --> A''            
     e( 57 - 57) =     -5.06519  eV     1   --> A'             
     e( 58 - 58) =     -5.06048  eV     1   --> A''            
     e( 59 - 59) =     -5.05463  eV     1   --> A''            
     e( 60 - 60) =     -5.02317  eV     1   --> A''            
     e( 61 - 61) =     -4.87525  eV     1   --> A'             
     e( 62 - 62) =     -4.87166  eV     1   --> A'             
     e( 63 - 63) =     -4.81851  eV     1   --> A'             
     e( 64 - 64) =     -4.81214  eV     1   --> A'             
     e( 65 - 65) =     -4.81074  eV     1   --> A'             
     e( 66 - 66) =     -4.78492  eV     1   --> A'             
     e( 67 - 67) =     -4.78213  eV     1   --> A'             
     e( 68 - 68) =     -4.77788  eV     1   --> A'             
     e( 69 - 69) =     -4.77220  eV     1   --> A'             
     e( 70 - 70) =     -4.77181  eV     1   --> A'             
     e( 71 - 71) =     -0.62898  eV     1   --> A''            
     e( 72 - 72) =     -0.57798  eV     1   --> A'             
     e( 73 - 73) =     -0.40660  eV     1   --> A''            
     e( 74 - 74) =     -0.39782  eV     1   --> A'             
     e( 75 - 75) =     -0.36077  eV     1   --> A''            
     e( 76 - 76) =     -0.35898  eV     1   --> A'             
     e( 77 - 77) =      0.00738  eV     1   --> A'             
     e( 78 - 78) =      0.04818  eV     1   --> A'             
     e( 79 - 79) =      0.06353  eV     1   --> A'             
     e( 80 - 80) =      0.10357  eV     1   --> A'             
     e( 81 - 81) =      0.10942  eV     1   --> A''            
     e( 82 - 82) =      0.15192  eV     1   --> A''            
     e( 83 - 83) =      0.26318  eV     1   --> A'             
     e( 84 - 84) =      0.31718  eV     1   --> A'             
     e( 85 - 85) =      0.33781  eV     1   --> A'             
     e( 86 - 86) =      0.39755  eV     1   --> A'             
     e( 87 - 87) =      0.92089  eV     1   --> A'             
     e( 88 - 88) =      0.98397  eV     1   --> A'             
     e( 89 - 89) =      1.04739  eV     1   --> A'             
     e( 90 - 90) =      1.11405  eV     1   --> A'             
     e( 91 - 91) =      2.58193  eV     1   --> A'             
     e( 92 - 92) =      2.66161  eV     1   --> A'             
     e( 93 - 93) =      2.86483  eV     1   --> A'             
     e( 94 - 94) =      2.88003  eV     1   --> A''            
     e( 95 - 95) =      2.95062  eV     1   --> A''            
     e( 96 - 96) =      2.95240  eV     1   --> A'             
     e( 97 - 97) =      3.20194  eV     1   --> A'             
     e( 98 - 98) =      3.28591  eV     1   --> A'             
     e( 99 - 99) =      3.68125  eV     1   --> A'             
     e(100 -100) =      3.80931  eV     1   --> A'             
     e(101 -101) =      3.89395  eV     1   --> A''            
     e(102 -102) =      3.95538  eV     1   --> A'             
     e(103 -103) =      4.01006  eV     1   --> A''            
     e(104 -104) =      4.06562  eV     1   --> A'             
     e(105 -105) =      4.28654  eV     1   --> A'             
     e(106 -106) =      4.39682  eV     1   --> A'             
     e(107 -107) =      4.55963  eV     1   --> A''            
     e(108 -108) =      4.56568  eV     1   --> A''            
     e(109 -109) =      4.63926  eV     1   --> A'             
     e(110 -110) =      4.65276  eV     1   --> A'             
     e(111 -111) =      4.65515  eV     1   --> A'             
     e(112 -112) =      4.66381  eV     1   --> A''            
     e(113 -113) =      4.67150  eV     1   --> A''            
     e(114 -114) =      4.67772  eV     1   --> A''            
     e(115 -115) =      4.68346  eV     1   --> A''            
     e(116 -116) =      4.68835  eV     1   --> A''            
     e(117 -117) =      4.69127  eV     1   --> A'             
     e(118 -118) =      4.69601  eV     1   --> A'             
     e(119 -119) =      4.72651  eV     1   --> A'             
     e(120 -120) =      4.76215  eV     1   --> A'             
     e(121 -121) =      4.76258  eV     1   --> A''            
     e(122 -122) =      4.77279  eV     1   --> A''            
     e(123 -123) =      4.77671  eV     1   --> A''            
     e(124 -124) =      4.87386  eV     1   --> A'             
     e(125 -125) =      4.87924  eV     1   --> A''            
     e(126 -126) =      4.89419  eV     1   --> A''            
     e(127 -127) =      4.94810  eV     1   --> A''            
     e(128 -128) =      4.95362  eV     1   --> A''            
     e(129 -129) =      4.98038  eV     1   --> A''            
     e(130 -130) =      4.98168  eV     1   --> A''            
     e(131 -131) =      6.96728  eV     1   --> A'             
     e(132 -132) =      7.10475  eV     1   --> A''            
     e(133 -133) =      7.65343  eV     1   --> A'             
     e(134 -134) =      7.77071  eV     1   --> A'             
     e(135 -135) =      7.81989  eV     1   --> A''            
     e(136 -136) =      7.93517  eV     1   --> A''            
     e(137 -137) =      7.96890  eV     1   --> A'             
     e(138 -138) =      8.05817  eV     1   --> A'             
     e(139 -139) =      8.52704  eV     1   --> A'             
     e(140 -140) =      8.59747  eV     1   --> A'             
     e(141 -141) =      8.59957  eV     1   --> A'             
     e(142 -142) =      8.61482  eV     1   --> A'             
     e(143 -143) =      8.65234  eV     1   --> A'             
     e(144 -144) =      8.68404  eV     1   --> A'             
     e(145 -145) =      8.80151  eV     1   --> A''            
     e(146 -146) =      8.85548  eV     1   --> A''            
     e(147 -147) =      8.95229  eV     1   --> A'             
     e(148 -148) =      8.97812  eV     1   --> A'             
     e(149 -149) =      9.14356  eV     1   --> A'             
     e(150 -150) =      9.15508  eV     1   --> A'             
     e(151 -151) =     10.15545  eV     1   --> A'             
     e(152 -152) =     10.16298  eV     1   --> A'             
     e(153 -153) =     10.24983  eV     1   --> A'             
     e(154 -154) =     10.27391  eV     1   --> A'             
     e(155 -155) =     10.27748  eV     1   --> A'             
     e(156 -156) =     10.30110  eV     1   --> A''            

 **************************************************************************

 **************************************************************************

                    xk=(   0.40000,   0.40000,   0.08000  )

     Band symmetry, C_s (m)     point group:

     e(  1 -  1) =     -8.94100  eV     1   --> A'             
     e(  2 -  2) =     -8.93995  eV     1   --> A'             
     e(  3 -  3) =     -8.93983  eV     1   --> A'             
     e(  4 -  4) =     -8.93941  eV     1   --> A'             
     e(  5 -  5) =     -8.93882  eV     1   --> A'             
     e(  6 -  6) =     -8.93832  eV     1   --> A'             
     e(  7 -  7) =     -8.93779  eV     1   --> A'             
     e(  8 -  8) =     -8.93742  eV     1   --> A'             
     e(  9 -  9) =     -8.93701  eV     1   --> A'             
     e( 10 - 10) =     -8.93662  eV     1   --> A'             
     e( 11 - 11) =     -8.91121  eV     1   --> A''            
     e( 12 - 14) =     -8.91105  eV     3   -->   3 A''            
     e( 15 - 15) =     -8.91016  eV     1   --> A''            
     e( 16 - 17) =     -8.90898  eV     2   -->   2 A'             
     e( 18 - 18) =     -8.90876  eV     1   --> A'             
     e( 19 - 19) =     -8.90862  eV     1   --> A'             
     e( 20 - 20) =     -8.90793  eV     1   --> A'             
     e( 21 - 21) =     -8.87672  eV     1   --> A''            
     e( 22 - 22) =     -8.87649  eV     1   --> A''            
     e( 23 - 23) =     -8.87627  eV     1   --> A''            
     e( 24 - 24) =     -8.87586  eV     1   --> A''            
     e( 25 - 25) =     -8.87573  eV     1   --> A''            
     e( 26 - 27) =     -8.87562  eV     2   -->   2 A''            
     e( 28 - 30) =     -8.87509  eV     3   -->   3 A''            
     e( 31 - 31) =     -8.83369  eV     1   --> A'             
     e( 32 - 32) =     -8.83356  eV     1   --> A'             
     e( 33 - 33) =     -8.83246  eV     1   --> A'             
     e( 34 - 38) =     -8.83209  eV     5   -->   3 A'             
     e( 34 - 38) =     -8.83209  eV     5   -->   2 A''            
     e( 39 - 40) =     -8.83174  eV     2   -->   2 A'             
     e( 41 - 42) =     -8.83084  eV     2   --> A'             
     e( 41 - 42) =     -8.83084  eV     2   --> A''            
     e( 43 - 43) =     -8.83060  eV     1   --> A'             
     e( 44 - 44) =     -8.83032  eV     1   --> A''            
     e( 45 - 46) =     -8.82996  eV     2   -->   2 A''            
     e( 47 - 48) =     -8.82984  eV     2   -->   2 A''            
     e( 49 - 50) =     -8.82898  eV     2   -->   2 A''            
     e( 51 - 51) =     -5.47462  eV     1   --> A'             
     e( 52 - 52) =     -5.45720  eV     1   --> A'             
     e( 53 - 53) =     -5.32868  eV     1   --> A'             
     e( 54 - 54) =     -5.28621  eV     1   --> A'             
     e( 55 - 55) =     -5.14174  eV     1   --> A'             
     e( 56 - 56) =     -5.06635  eV     1   --> A''            
     e( 57 - 57) =     -5.05970  eV     1   --> A''            
     e( 58 - 58) =     -5.01675  eV     1   --> A''            
     e( 59 - 59) =     -5.00529  eV     1   --> A''            
     e( 60 - 60) =     -4.97739  eV     1   --> A''            
     e( 61 - 61) =     -4.86890  eV     1   --> A'             
     e( 62 - 62) =     -4.83969  eV     1   --> A'             
     e( 63 - 63) =     -4.83254  eV     1   --> A'             
     e( 64 - 64) =     -4.78604  eV     1   --> A'             
     e( 65 - 65) =     -4.77378  eV     1   --> A'             
     e( 66 - 66) =     -4.74505  eV     1   --> A'             
     e( 67 - 67) =     -4.74374  eV     1   --> A'             
     e( 68 - 68) =     -4.71146  eV     1   --> A'             
     e( 69 - 69) =     -4.62018  eV     1   --> A'             
     e( 70 - 70) =     -4.60916  eV     1   --> A'             
     e( 71 - 71) =     -0.60123  eV     1   --> A''            
     e( 72 - 72) =     -0.41215  eV     1   --> A''            
     e( 73 - 73) =     -0.40456  eV     1   --> A'             
     e( 74 - 74) =     -0.34590  eV     1   --> A'             
     e( 75 - 75) =     -0.32564  eV     1   --> A''            
     e( 76 - 76) =     -0.30323  eV     1   --> A'             
     e( 77 - 77) =     -0.04194  eV     1   --> A'             
     e( 78 - 78) =      0.01887  eV     1   --> A'             
     e( 79 - 79) =      0.05332  eV     1   --> A'             
     e( 80 - 80) =      0.06691  eV     1   --> A''            
     e( 81 - 81) =      0.14349  eV     1   --> A''            
     e( 82 - 82) =      0.21381  eV     1   --> A'             
     e( 83 - 83) =      0.27330  eV     1   --> A'             
     e( 84 - 84) =      0.37684  eV     1   --> A'             
     e( 85 - 85) =      0.53874  eV     1   --> A'             
     e( 86 - 86) =      0.67808  eV     1   --> A'             
     e( 87 - 87) =      0.88794  eV     1   --> A'             
     e( 88 - 88) =      1.00265  eV     1   --> A'             
     e( 89 - 89) =      1.31734  eV     1   --> A'             
     e( 90 - 90) =      1.45806  eV     1   --> A'             
     e( 91 - 91) =      2.33202  eV     1   --> A'             
     e( 92 - 92) =      2.48088  eV     1   --> A'             
     e( 93 - 93) =      2.84625  eV     1   --> A'             
     e( 94 - 94) =      2.87184  eV     1   --> A''            
     e( 95 - 95) =      2.99028  eV     1   --> A''            
     e( 96 - 96) =      2.99942  eV     1   --> A'             
     e( 97 - 97) =      3.36512  eV     1   --> A'             
     e( 98 - 98) =      3.53856  eV     1   --> A'             
     e( 99 - 99) =      3.62217  eV     1   --> A'             
     e(100 -100) =      3.66631  eV     1   --> A''            
     e(101 -101) =      3.70658  eV     1   --> A'             
     e(102 -102) =      3.76582  eV     1   --> A'             
     e(103 -103) =      3.83124  eV     1   --> A''            
     e(104 -104) =      3.93608  eV     1   --> A'             
     e(105 -105) =      4.19350  eV     1   --> A''            
     e(106 -106) =      4.27097  eV     1   --> A'             
     e(107 -107) =      4.34531  eV     1   --> A''            
     e(108 -108) =      4.36291  eV     1   --> A''            
     e(109 -109) =      4.40324  eV     1   --> A'             
     e(110 -110) =      4.40550  eV     1   --> A''            
     e(111 -111) =      4.41341  eV     1   --> A'             
     e(112 -112) =      4.42351  eV     1   --> A''            
     e(113 -113) =      4.49273  eV     1   --> A'             
     e(114 -114) =      4.49415  eV     1   --> A''            
     e(115 -115) =      4.52408  eV     1   --> A'             
     e(116 -116) =      4.53904  eV     1   --> A''            
     e(117 -117) =      4.55220  eV     1   --> A'             
     e(118 -118) =      4.55673  eV     1   --> A''            
     e(119 -119) =      4.56826  eV     1   --> A'             
     e(120 -120) =      4.60349  eV     1   --> A''            
     e(121 -121) =      4.66988  eV     1   --> A'             
     e(122 -122) =      4.71237  eV     1   --> A''            
     e(123 -123) =      4.73116  eV     1   --> A'             
     e(124 -124) =      4.77201  eV     1   --> A''            
     e(125 -125) =      4.80801  eV     1   --> A'             
     e(126 -126) =      4.86829  eV     1   --> A''            
     e(127 -127) =      5.02430  eV     1   --> A''            
     e(128 -128) =      5.06141  eV     1   --> A''            
     e(129 -129) =      5.16344  eV     1   --> A''            
     e(130 -130) =      5.17601  eV     1   --> A''            
     e(131 -131) =      7.17477  eV     1   --> A'             
     e(132 -132) =      7.50910  eV     1   --> A'             
     e(133 -133) =      7.56647  eV     1   --> A''            
     e(134 -134) =      7.70973  eV     1   --> A'             
     e(135 -135) =      7.99413  eV     1   --> A''            
     e(136 -136) =      8.15468  eV     1   --> A'             
     e(137 -137) =      8.17516  eV     1   --> A''            
     e(138 -138) =      8.43451  eV     1   --> A'             
     e(139 -139) =      8.45595  eV     1   --> A'             
     e(140 -140) =      8.50622  eV     1   --> A'             
     e(141 -141) =      8.58487  eV     1   --> A'             
     e(142 -142) =      8.66034  eV     1   --> A'             
     e(143 -143) =      8.79428  eV     1   --> A'             
     e(144 -144) =      8.83463  eV     1   --> A'             
     e(145 -145) =      8.93627  eV     1   --> A'             
     e(146 -146) =      8.94854  eV     1   --> A'             
     e(147 -147) =      8.98121  eV     1   --> A''            
     e(148 -148) =      9.14816  eV     1   --> A''            
     e(149 -149) =      9.51717  eV     1   --> A'             
     e(150 -150) =      9.56570  eV     1   --> A'             
     e(151 -151) =     10.06118  eV     1   --> A'             
     e(152 -152) =     10.10569  eV     1   --> A'             
     e(153 -153) =     10.12001  eV     1   --> A'             
     e(154 -154) =     10.16954  eV     1   --> A''            
     e(155 -155) =     10.21000  eV     1   --> A'             
     e(156 -156) =     10.23812  eV     1   --> A'             

 **************************************************************************

 **************************************************************************

                    xk=(   0.35000,   0.35000,   0.07000  )

     Band symmetry, C_s (m)     point group:

     e(  1 -  1) =     -8.94180  eV     1   --> A'             
     e(  2 -  2) =     -8.94083  eV     1   --> A'             
     e(  3 -  3) =     -8.94018  eV     1   --> A'             
     e(  4 -  4) =     -8.93890  eV     1   --> A'             
     e(  5 -  5) =     -8.93864  eV     1   --> A'             
     e(  6 -  6) =     -8.93812  eV     1   --> A'             
     e(  7 -  7) =     -8.93801  eV     1   --> A'             
     e(  8 -  8) =     -8.93749  eV     1   --> A'             
     e(  9 -  9) =     -8.93631  eV     1   --> A'             
     e( 10 - 10) =     -8.93589  eV     1   --> A'             
     e( 11 - 11) =     -8.91260  eV     1   --> A''            
     e( 12 - 12) =     -8.91235  eV     1   --> A''            
     e( 13 - 13) =     -8.91224  eV     1   --> A''            
     e( 14 - 14) =     -8.91214  eV     1   --> A''            
     e( 15 - 15) =     -8.91163  eV     1   --> A''            
     e( 16 - 17) =     -8.90614  eV     2   -->   2 A'             
     e( 18 - 19) =     -8.90595  eV     2   -->   2 A'             
     e( 20 - 20) =     -8.90534  eV     1   --> A'             
     e( 21 - 21) =     -8.87691  eV     1   --> A''            
     e( 22 - 22) =     -8.87671  eV     1   --> A''            
     e( 23 - 23) =     -8.87647  eV     1   --> A''            
     e( 24 - 24) =     -8.87609  eV     1   --> A''            
     e( 25 - 25) =     -8.87597  eV     1   --> A''            
     e( 26 - 26) =     -8.87395  eV     1   --> A''            
     e( 27 - 27) =     -8.87385  eV     1   --> A''            
     e( 28 - 28) =     -8.87355  eV     1   --> A''            
     e( 29 - 29) =     -8.87344  eV     1   --> A''            
     e( 30 - 30) =     -8.87327  eV     1   --> A''            
     e( 31 - 31) =     -8.83512  eV     1   --> A'             
     e( 32 - 32) =     -8.83502  eV     1   --> A'             
     e( 33 - 33) =     -8.83389  eV     1   --> A'             
     e( 34 - 36) =     -8.83331  eV     3   -->   3 A'             
     e( 37 - 37) =     -8.83303  eV     1   --> A'             
     e( 38 - 38) =     -8.83287  eV     1   --> A'             
     e( 39 - 40) =     -8.83208  eV     2   -->   2 A'             
     e( 41 - 41) =     -8.83169  eV     1   --> A''            
     e( 42 - 42) =     -8.83156  eV     1   --> A''            
     e( 43 - 43) =     -8.83043  eV     1   --> A''            
     e( 44 - 44) =     -8.82995  eV     1   --> A''            
     e( 45 - 46) =     -8.82887  eV     2   -->   2 A''            
     e( 47 - 48) =     -8.82864  eV     2   -->   2 A''            
     e( 49 - 49) =     -8.82848  eV     1   --> A''            
     e( 50 - 50) =     -8.82767  eV     1   --> A''            
     e( 51 - 51) =     -5.69206  eV     1   --> A'             
     e( 52 - 52) =     -5.66076  eV     1   --> A'             
     e( 53 - 53) =     -5.52203  eV     1   --> A'             
     e( 54 - 54) =     -5.44033  eV     1   --> A'             
     e( 55 - 55) =     -5.25683  eV     1   --> A'             
     e( 56 - 56) =     -4.99084  eV     1   --> A''            
     e( 57 - 57) =     -4.98117  eV     1   --> A''            
     e( 58 - 58) =     -4.94900  eV     1   --> A'             
     e( 59 - 59) =     -4.94426  eV     1   --> A''            
     e( 60 - 60) =     -4.92747  eV     1   --> A''            
     e( 61 - 61) =     -4.90356  eV     1   --> A''            
     e( 62 - 62) =     -4.78131  eV     1   --> A'             
     e( 63 - 63) =     -4.77097  eV     1   --> A'             
     e( 64 - 64) =     -4.75240  eV     1   --> A'             
     e( 65 - 65) =     -4.73189  eV     1   --> A'             
     e( 66 - 66) =     -4.71414  eV     1   --> A'             
     e( 67 - 67) =     -4.68889  eV     1   --> A'             
     e( 68 - 68) =     -4.66223  eV     1   --> A'             
     e( 69 - 69) =     -4.50696  eV     1   --> A'             
     e( 70 - 70) =     -4.47195  eV     1   --> A'             
     e( 71 - 71) =     -0.56098  eV     1   --> A''            
     e( 72 - 72) =     -0.41011  eV     1   --> A''            
     e( 73 - 73) =     -0.29433  eV     1   --> A''            
     e( 74 - 74) =     -0.20652  eV     1   --> A'             
     e( 75 - 75) =     -0.20449  eV     1   --> A'             
     e( 76 - 76) =     -0.14186  eV     1   --> A'             
     e( 77 - 77) =     -0.10559  eV     1   --> A'             
     e( 78 - 78) =     -0.05477  eV     1   --> A'             
     e( 79 - 79) =      0.00631  eV     1   --> A''            
     e( 80 - 80) =      0.10107  eV     1   --> A''            
     e( 81 - 81) =      0.12612  eV     1   --> A'             
     e( 82 - 82) =      0.30599  eV     1   --> A'             
     e( 83 - 83) =      0.44868  eV     1   --> A'             
     e( 84 - 84) =      0.47843  eV     1   --> A'             
     e( 85 - 85) =      0.83614  eV     1   --> A'             
     e( 86 - 86) =      0.85126  eV     1   --> A'             
     e( 87 - 87) =      0.99512  eV     1   --> A'             
     e( 88 - 88) =      1.07333  eV     1   --> A'             
     e( 89 - 89) =      1.67917  eV     1   --> A'             
     e( 90 - 90) =      1.89357  eV     1   --> A'             
     e( 91 - 91) =      2.18930  eV     1   --> A'             
     e( 92 - 92) =      2.38116  eV     1   --> A'             
     e( 93 - 93) =      2.85261  eV     1   --> A'             
     e( 94 - 94) =      2.88744  eV     1   --> A''            
     e( 95 - 95) =      3.00024  eV     1   --> A''            
     e( 96 - 96) =      3.02034  eV     1   --> A'             
     e( 97 - 97) =      3.10553  eV     1   --> A'             
     e( 98 - 98) =      3.35275  eV     1   --> A''            
     e( 99 - 99) =      3.48188  eV     1   --> A'             
     e(100 -101) =      3.48559  eV     2   --> A'             
     e(100 -101) =      3.48559  eV     2   --> A''            
     e(102 -102) =      3.63917  eV     1   --> A'             
     e(103 -103) =      3.65943  eV     1   --> A''            
     e(104 -104) =      3.81513  eV     1   --> A'             
     e(105 -105) =      3.90472  eV     1   --> A'             
     e(106 -106) =      4.07594  eV     1   --> A''            
     e(107 -107) =      4.10067  eV     1   --> A'             
     e(108 -108) =      4.13013  eV     1   --> A''            
     e(109 -109) =      4.13548  eV     1   --> A'             
     e(110 -110) =      4.13850  eV     1   --> A''            
     e(111 -111) =      4.15106  eV     1   --> A'             
     e(112 -112) =      4.17102  eV     1   --> A''            
     e(113 -113) =      4.29288  eV     1   --> A'             
     e(114 -114) =      4.31509  eV     1   --> A''            
     e(115 -115) =      4.35266  eV     1   --> A''            
     e(116 -116) =      4.36072  eV     1   --> A'             
     e(117 -117) =      4.37989  eV     1   --> A'             
     e(118 -118) =      4.40150  eV     1   --> A''            
     e(119 -119) =      4.45655  eV     1   --> A''            
     e(120 -120) =      4.51956  eV     1   --> A'             
     e(121 -121) =      4.59592  eV     1   --> A''            
     e(122 -122) =      4.61573  eV     1   --> A''            
     e(123 -123) =      4.73129  eV     1   --> A'             
     e(124 -124) =      4.81731  eV     1   --> A'             
     e(125 -125) =      4.83105  eV     1   --> A''            
     e(126 -126) =      4.98477  eV     1   --> A'             
     e(127 -127) =      5.05813  eV     1   --> A''            
     e(128 -128) =      5.15339  eV     1   --> A''            
     e(129 -129) =      5.31628  eV     1   --> A''            
     e(130 -130) =      5.35256  eV     1   --> A''            
     e(131 -131) =      7.45116  eV     1   --> A'             
     e(132 -132) =      7.45602  eV     1   --> A'             
     e(133 -133) =      7.65671  eV     1   --> A'             
     e(134 -134) =      8.05611  eV     1   --> A''            
     e(135 -135) =      8.12550  eV     1   --> A''            
     e(136 -136) =      8.25136  eV     1   --> A''            
     e(137 -137) =      8.26359  eV     1   --> A'             
     e(138 -138) =      8.31788  eV     1   --> A'             
     e(139 -139) =      8.40847  eV     1   --> A'             
     e(140 -140) =      8.61920  eV     1   --> A'             
     e(141 -141) =      8.61989  eV     1   --> A'             
     e(142 -142) =      8.65836  eV     1   --> A'             
     e(143 -143) =      8.81284  eV     1   --> A''            
     e(144 -144) =      8.85615  eV     1   --> A'             
     e(145 -145) =      8.86065  eV     1   --> A'             
     e(146 -146) =      8.87674  eV     1   --> A'             
     e(147 -147) =      8.95832  eV     1   --> A'             
     e(148 -148) =      9.12535  eV     1   --> A''            
     e(149 -149) =      9.35855  eV     1   --> A'             
     e(150 -150) =      9.55473  eV     1   --> A'             
     e(151 -151) =     10.05186  eV     1   --> A''            
     e(152 -152) =     10.08299  eV     1   --> A''            
     e(153 -153) =     10.14527  eV     1   --> A'             
     e(154 -154) =     10.30513  eV     1   --> A'             
     e(155 -155) =     10.30898  eV     1   --> A''            
     e(156 -156) =     10.32068  eV     1   --> A'             

 **************************************************************************

 **************************************************************************

                    xk=(   0.30000,   0.30000,   0.06000  )

     Band symmetry, C_s (m)     point group:

     e(  1 -  1) =     -8.94365  eV     1   --> A'             
     e(  2 -  2) =     -8.94281  eV     1   --> A'             
     e(  3 -  3) =     -8.94177  eV     1   --> A'             
     e(  4 -  4) =     -8.94035  eV     1   --> A'             
     e(  5 -  5) =     -8.93964  eV     1   --> A'             
     e(  6 -  6) =     -8.93794  eV     1   --> A'             
     e(  7 -  7) =     -8.93710  eV     1   --> A'             
     e(  8 -  8) =     -8.93642  eV     1   --> A'             
     e(  9 -  9) =     -8.93524  eV     1   --> A'             
     e( 10 - 10) =     -8.93489  eV     1   --> A'             
     e( 11 - 11) =     -8.91521  eV     1   --> A''            
     e( 12 - 12) =     -8.91495  eV     1   --> A''            
     e( 13 - 13) =     -8.91472  eV     1   --> A''            
     e( 14 - 14) =     -8.91455  eV     1   --> A''            
     e( 15 - 15) =     -8.91421  eV     1   --> A''            
     e( 16 - 16) =     -8.90222  eV     1   --> A'             
     e( 17 - 17) =     -8.90209  eV     1   --> A'             
     e( 18 - 19) =     -8.90185  eV     2   -->   2 A'             
     e( 20 - 20) =     -8.90149  eV     1   --> A'             
     e( 21 - 21) =     -8.87721  eV     1   --> A''            
     e( 22 - 22) =     -8.87699  eV     1   --> A''            
     e( 23 - 23) =     -8.87673  eV     1   --> A''            
     e( 24 - 24) =     -8.87635  eV     1   --> A''            
     e( 25 - 25) =     -8.87625  eV     1   --> A''            
     e( 26 - 27) =     -8.87091  eV     2   -->   2 A''            
     e( 28 - 29) =     -8.87069  eV     2   -->   2 A''            
     e( 30 - 30) =     -8.87018  eV     1   --> A''            
     e( 31 - 31) =     -8.83684  eV     1   --> A'             
     e( 32 - 32) =     -8.83673  eV     1   --> A'             
     e( 33 - 33) =     -8.83560  eV     1   --> A'             
     e( 34 - 36) =     -8.83507  eV     3   -->   3 A'             
     e( 37 - 37) =     -8.83489  eV     1   --> A'             
     e( 38 - 38) =     -8.83473  eV     1   --> A'             
     e( 39 - 39) =     -8.83392  eV     1   --> A'             
     e( 40 - 40) =     -8.83374  eV     1   --> A'             
     e( 41 - 41) =     -8.83115  eV     1   --> A''            
     e( 42 - 42) =     -8.83104  eV     1   --> A''            
     e( 43 - 43) =     -8.82994  eV     1   --> A''            
     e( 44 - 44) =     -8.82945  eV     1   --> A''            
     e( 45 - 45) =     -8.82811  eV     1   --> A''            
     e( 46 - 47) =     -8.82729  eV     2   -->   2 A''            
     e( 48 - 49) =     -8.82709  eV     2   -->   2 A''            
     e( 50 - 50) =     -8.82617  eV     1   --> A''            
     e( 51 - 51) =     -5.89661  eV     1   --> A'             
     e( 52 - 52) =     -5.85008  eV     1   --> A'             
     e( 53 - 53) =     -5.71541  eV     1   --> A'             
     e( 54 - 54) =     -5.59012  eV     1   --> A'             
     e( 55 - 55) =     -5.39473  eV     1   --> A'             
     e( 56 - 56) =     -5.03767  eV     1   --> A'             
     e( 57 - 57) =     -4.88911  eV     1   --> A''            
     e( 58 - 58) =     -4.87663  eV     1   --> A''            
     e( 59 - 59) =     -4.84618  eV     1   --> A''            
     e( 60 - 60) =     -4.82497  eV     1   --> A''            
     e( 61 - 61) =     -4.80535  eV     1   --> A'             
     e( 62 - 62) =     -4.80504  eV     1   --> A''            
     e( 63 - 63) =     -4.70341  eV     1   --> A'             
     e( 64 - 64) =     -4.69028  eV     1   --> A'             
     e( 65 - 65) =     -4.65907  eV     1   --> A'             
     e( 66 - 66) =     -4.63913  eV     1   --> A'             
     e( 67 - 67) =     -4.63723  eV     1   --> A'             
     e( 68 - 68) =     -4.61709  eV     1   --> A'             
     e( 69 - 69) =     -4.44371  eV     1   --> A'             
     e( 70 - 70) =     -4.37172  eV     1   --> A'             
     e( 71 - 71) =     -0.51823  eV     1   --> A''            
     e( 72 - 72) =     -0.40901  eV     1   --> A''            
     e( 73 - 73) =     -0.28295  eV     1   --> A''            
     e( 74 - 74) =     -0.11385  eV     1   --> A'             
     e( 75 - 75) =     -0.10985  eV     1   --> A'             
     e( 76 - 76) =     -0.08012  eV     1   --> A''            
     e( 77 - 77) =     -0.06998  eV     1   --> A'             
     e( 78 - 78) =      0.01191  eV     1   --> A''            
     e( 79 - 79) =      0.01413  eV     1   --> A'             
     e( 80 - 80) =      0.17823  eV     1   --> A'             
     e( 81 - 81) =      0.21903  eV     1   --> A'             
     e( 82 - 82) =      0.35522  eV     1   --> A'             
     e( 83 - 83) =      0.51851  eV     1   --> A'             
     e( 84 - 84) =      0.80227  eV     1   --> A'             
     e( 85 - 85) =      0.82714  eV     1   --> A'             
     e( 86 - 86) =      0.94401  eV     1   --> A'             
     e( 87 - 87) =      1.19970  eV     1   --> A'             
     e( 88 - 88) =      1.54829  eV     1   --> A'             
     e( 89 - 89) =      2.07452  eV     1   --> A'             
     e( 90 - 90) =      2.09458  eV     1   --> A'             
     e( 91 - 91) =      2.40031  eV     1   --> A'             
     e( 92 - 92) =      2.46587  eV     1   --> A'             
     e( 93 - 93) =      2.88772  eV     1   --> A'             
     e( 94 - 94) =      2.92652  eV     1   --> A'             
     e( 95 - 95) =      2.92788  eV     1   --> A''            
     e( 96 - 96) =      2.94904  eV     1   --> A''            
     e( 97 - 97) =      2.98633  eV     1   --> A'             
     e( 98 - 98) =      3.02236  eV     1   --> A''            
     e( 99 - 99) =      3.08695  eV     1   --> A''            
     e(100 -100) =      3.15732  eV     1   --> A''            
     e(101 -101) =      3.16684  eV     1   --> A'             
     e(102 -102) =      3.26836  eV     1   --> A'             
     e(103 -103) =      3.35715  eV     1   --> A'             
     e(104 -104) =      3.39689  eV     1   --> A'             
     e(105 -105) =      3.77798  eV     1   --> A''            
     e(106 -106) =      3.82323  eV     1   --> A'             
     e(107 -107) =      3.91372  eV     1   --> A''            
     e(108 -108) =      3.91678  eV     1   --> A'             
     e(109 -109) =      3.94731  eV     1   --> A''            
     e(110 -110) =      3.99643  eV     1   --> A''            
     e(111 -111) =      4.12331  eV     1   --> A'             
     e(112 -112) =      4.13890  eV     1   --> A''            
     e(113 -113) =      4.15310  eV     1   --> A'             
     e(114 -114) =      4.17378  eV     1   --> A''            
     e(115 -115) =      4.23733  eV     1   --> A'             
     e(116 -116) =      4.27313  eV     1   --> A''            
     e(117 -117) =      4.28830  eV     1   --> A'             
     e(118 -118) =      4.29431  eV     1   --> A''            
     e(119 -119) =      4.31631  eV     1   --> A'             
     e(120 -120) =      4.36072  eV     1   --> A''            
     e(121 -121) =      4.49882  eV     1   --> A''            
     e(122 -122) =      4.59875  eV     1   --> A'             
     e(123 -123) =      4.65758  eV     1   --> A'             
     e(124 -124) =      4.78813  eV     1   --> A''            
     e(125 -125) =      5.05092  eV     1   --> A''            
     e(126 -126) =      5.06182  eV     1   --> A'             
     e(127 -127) =      5.10669  eV     1   --> A'             
     e(128 -128) =      5.22741  eV     1   --> A''            
     e(129 -129) =      5.43180  eV     1   --> A''            
     e(130 -130) =      5.50648  eV     1   --> A''            
     e(131 -131) =      7.54929  eV     1   --> A'             
     e(132 -132) =      7.64842  eV     1   --> A'             
     e(133 -133) =      7.76401  eV     1   --> A'             
     e(134 -134) =      8.06736  eV     1   --> A'             
     e(135 -135) =      8.12284  eV     1   --> A'             
     e(136 -136) =      8.14071  eV     1   --> A''            
     e(137 -137) =      8.19263  eV     1   --> A''            
     e(138 -138) =      8.40823  eV     1   --> A''            
     e(139 -139) =      8.47133  eV     1   --> A'             
     e(140 -140) =      8.47265  eV     1   --> A''            
     e(141 -141) =      8.50316  eV     1   --> A'             
     e(142 -142) =      8.61144  eV     1   --> A'             
     e(143 -143) =      8.64341  eV     1   --> A'             
     e(144 -145) =      8.74458  eV     2   -->   2 A'             
     e(146 -146) =      8.75316  eV     1   --> A''            
     e(147 -147) =      8.84738  eV     1   --> A'             
     e(148 -148) =      8.88523  eV     1   --> A'             
     e(149 -149) =      9.08322  eV     1   --> A'             
     e(150 -150) =      9.20637  eV     1   --> A'             
     e(151 -151) =      9.71649  eV     1   --> A''            
     e(152 -152) =     10.02819  eV     1   --> A''            
     e(153 -153) =     10.12885  eV     1   --> A'             
     e(154 -154) =     10.23644  eV     1   --> A'             
     e(155 -155) =     10.24629  eV     1   --> A''            
     e(156 -156) =     10.34002  eV     1   --> A'             

 **************************************************************************

 **************************************************************************

                    xk=(   0.25000,   0.25000,   0.05000  )

     Band symmetry, C_s (m)     point group:

     e(  1 -  1) =     -8.94616  eV     1   --> A'             
     e(  2 -  2) =     -8.94528  eV     1   --> A'             
     e(  3 -  3) =     -8.94409  eV     1   --> A'             
     e(  4 -  4) =     -8.94290  eV     1   --> A'             
     e(  5 -  5) =     -8.94195  eV     1   --> A'             
     e(  6 -  6) =     -8.93664  eV     1   --> A'             
     e(  7 -  7) =     -8.93607  eV     1   --> A'             
     e(  8 -  8) =     -8.93526  eV     1   --> A'             
     e(  9 -  9) =     -8.93431  eV     1   --> A'             
     e( 10 - 10) =     -8.93377  eV     1   --> A'             
     e( 11 - 11) =     -8.91878  eV     1   --> A''            
     e( 12 - 12) =     -8.91846  eV     1   --> A''            
     e( 13 - 13) =     -8.91817  eV     1   --> A''            
     e( 14 - 14) =     -8.91786  eV     1   --> A''            
     e( 15 - 15) =     -8.91763  eV     1   --> A''            
     e( 16 - 16) =     -8.89718  eV     1   --> A'             
     e( 17 - 17) =     -8.89706  eV     1   --> A'             
     e( 18 - 20) =     -8.89671  eV     3   -->   3 A'             
     e( 21 - 21) =     -8.87745  eV     1   --> A''            
     e( 22 - 22) =     -8.87723  eV     1   --> A''            
     e( 23 - 23) =     -8.87700  eV     1   --> A''            
     e( 24 - 25) =     -8.87661  eV     2   -->   2 A''            
     e( 26 - 29) =     -8.86677  eV     4   -->   4 A''            
     e( 30 - 30) =     -8.86596  eV     1   --> A''            
     e( 31 - 31) =     -8.83870  eV     1   --> A'             
     e( 32 - 32) =     -8.83857  eV     1   --> A'             
     e( 33 - 33) =     -8.83751  eV     1   --> A'             
     e( 34 - 35) =     -8.83716  eV     2   -->   2 A'             
     e( 36 - 36) =     -8.83698  eV     1   --> A'             
     e( 37 - 37) =     -8.83676  eV     1   --> A'             
     e( 38 - 38) =     -8.83653  eV     1   --> A'             
     e( 39 - 39) =     -8.83581  eV     1   --> A'             
     e( 40 - 40) =     -8.83564  eV     1   --> A'             
     e( 41 - 41) =     -8.83054  eV     1   --> A''            
     e( 42 - 42) =     -8.83033  eV     1   --> A''            
     e( 43 - 43) =     -8.82928  eV     1   --> A''            
     e( 44 - 44) =     -8.82876  eV     1   --> A''            
     e( 45 - 45) =     -8.82743  eV     1   --> A''            
     e( 46 - 47) =     -8.82593  eV     2   -->   2 A''            
     e( 48 - 48) =     -8.82575  eV     1   --> A''            
     e( 49 - 49) =     -8.82559  eV     1   --> A''            
     e( 50 - 50) =     -8.82477  eV     1   --> A''            
     e( 51 - 51) =     -6.07970  eV     1   --> A'             
     e( 52 - 52) =     -6.01724  eV     1   --> A'             
     e( 53 - 53) =     -5.89586  eV     1   --> A'             
     e( 54 - 54) =     -5.72496  eV     1   --> A'             
     e( 55 - 55) =     -5.53905  eV     1   --> A'             
     e( 56 - 56) =     -5.12299  eV     1   --> A'             
     e( 57 - 57) =     -4.88836  eV     1   --> A'             
     e( 58 - 58) =     -4.76643  eV     1   --> A''            
     e( 59 - 59) =     -4.75180  eV     1   --> A''            
     e( 60 - 60) =     -4.72782  eV     1   --> A''            
     e( 61 - 61) =     -4.70326  eV     1   --> A''            
     e( 62 - 62) =     -4.68754  eV     1   --> A''            
     e( 63 - 63) =     -4.63549  eV     1   --> A'             
     e( 64 - 64) =     -4.61122  eV     1   --> A'             
     e( 65 - 65) =     -4.59663  eV     1   --> A'             
     e( 66 - 66) =     -4.57275  eV     1   --> A'             
     e( 67 - 67) =     -4.54822  eV     1   --> A'             
     e( 68 - 68) =     -4.53261  eV     1   --> A'             
     e( 69 - 69) =     -4.42736  eV     1   --> A'             
     e( 70 - 70) =     -4.30836  eV     1   --> A'             
     e( 71 - 71) =     -0.48791  eV     1   --> A''            
     e( 72 - 72) =     -0.42100  eV     1   --> A''            
     e( 73 - 73) =     -0.31107  eV     1   --> A''            
     e( 74 - 74) =     -0.19945  eV     1   --> A''            
     e( 75 - 75) =     -0.15855  eV     1   --> A'             
     e( 76 - 76) =     -0.12977  eV     1   --> A''            
     e( 77 - 77) =     -0.08131  eV     1   --> A'             
     e( 78 - 78) =      0.07112  eV     1   --> A'             
     e( 79 - 79) =      0.28868  eV     1   --> A'             
     e( 80 - 80) =      0.32044  eV     1   --> A'             
     e( 81 - 81) =      0.41059  eV     1   --> A'             
     e( 82 - 82) =      0.52008  eV     1   --> A'             
     e( 83 - 83) =      0.56452  eV     1   --> A'             
     e( 84 - 84) =      0.72994  eV     1   --> A'             
     e( 85 - 85) =      0.83898  eV     1   --> A'             
     e( 86 - 86) =      1.24100  eV     1   --> A'             
     e( 87 - 87) =      1.60717  eV     1   --> A'             
     e( 88 - 88) =      2.07506  eV     1   --> A'             
     e( 89 - 89) =      2.18506  eV     1   --> A'             
     e( 90 - 90) =      2.35324  eV     1   --> A'             
     e( 91 - 91) =      2.68208  eV     1   --> A'             
     e( 92 - 92) =      2.72804  eV     1   --> A''            
     e( 93 - 93) =      2.73546  eV     1   --> A''            
     e( 94 - 94) =      2.75222  eV     1   --> A''            
     e( 95 - 95) =      2.84568  eV     1   --> A''            
     e( 96 - 96) =      2.85697  eV     1   --> A'             
     e( 97 - 97) =      2.88769  eV     1   --> A'             
     e( 98 - 98) =      2.90089  eV     1   --> A'             
     e( 99 - 99) =      2.91686  eV     1   --> A'             
     e(100 -100) =      2.94971  eV     1   --> A'             
     e(101 -101) =      2.95338  eV     1   --> A'             
     e(102 -102) =      2.99168  eV     1   --> A''            
     e(103 -103) =      3.03401  eV     1   --> A'             
     e(104 -104) =      3.37804  eV     1   --> A'             
     e(105 -105) =      3.55697  eV     1   --> A''            
     e(106 -106) =      3.61469  eV     1   --> A'             
     e(107 -107) =      3.77720  eV     1   --> A''            
     e(108 -108) =      3.79075  eV     1   --> A'             
     e(109 -109) =      3.79720  eV     1   --> A''            
     e(110 -110) =      3.84374  eV     1   --> A''            
     e(111 -111) =      3.96612  eV     1   --> A'             
     e(112 -112) =      3.97416  eV     1   --> A''            
     e(113 -113) =      3.98029  eV     1   --> A'             
     e(114 -114) =      4.00074  eV     1   --> A''            
     e(115 -115) =      4.05272  eV     1   --> A'             
     e(116 -116) =      4.07005  eV     1   --> A'             
     e(117 -117) =      4.07920  eV     1   --> A''            
     e(118 -118) =      4.08023  eV     1   --> A''            
     e(119 -119) =      4.16005  eV     1   --> A''            
     e(120 -120) =      4.37468  eV     1   --> A''            
     e(121 -121) =      4.60117  eV     1   --> A'             
     e(122 -122) =      4.67339  eV     1   --> A'             
     e(123 -123) =      4.74640  eV     1   --> A''            
     e(124 -124) =      5.01246  eV     1   --> A''            
     e(125 -125) =      5.01830  eV     1   --> A'             
     e(126 -126) =      5.09823  eV     1   --> A'             
     e(127 -127) =      5.26568  eV     1   --> A'             
     e(128 -128) =      5.28568  eV     1   --> A''            
     e(129 -129) =      5.50754  eV     1   --> A''            
     e(130 -130) =      5.63433  eV     1   --> A''            
     e(131 -131) =      7.69245  eV     1   --> A'             
     e(132 -132) =      7.78789  eV     1   --> A'             
     e(133 -133) =      7.89125  eV     1   --> A'             
     e(134 -134) =      7.93944  eV     1   --> A'             
     e(135 -135) =      7.97490  eV     1   --> A''            
     e(136 -136) =      8.01690  eV     1   --> A''            
     e(137 -137) =      8.05225  eV     1   --> A'             
     e(138 -138) =      8.27499  eV     1   --> A''            
     e(139 -139) =      8.30821  eV     1   --> A'             
     e(140 -140) =      8.32909  eV     1   --> A''            
     e(141 -141) =      8.36818  eV     1   --> A'             
     e(142 -142) =      8.47007  eV     1   --> A'             
     e(143 -143) =      8.50850  eV     1   --> A'             
     e(144 -144) =      8.58364  eV     1   --> A'             
     e(145 -145) =      8.60456  eV     1   --> A'             
     e(146 -146) =      8.61941  eV     1   --> A'             
     e(147 -147) =      8.77514  eV     1   --> A'             
     e(148 -148) =      8.77532  eV     1   --> A''            
     e(149 -149) =      8.83967  eV     1   --> A'             
     e(150 -150) =      9.17575  eV     1   --> A''            
     e(151 -151) =      9.40617  eV     1   --> A'             
     e(152 -152) =      9.82584  eV     1   --> A'             
     e(153 -153) =      9.87322  eV     1   --> A''            
     e(154 -154) =     10.13009  eV     1   --> A'             
     e(155 -155) =     10.13593  eV     1   --> A'             
     e(156 -156) =     10.15248  eV     1   --> A''            

 **************************************************************************

 **************************************************************************

                    xk=(   0.20000,   0.20000,   0.04000  )

     Band symmetry, C_s (m)     point group:

     e(  1 -  1) =     -8.94890  eV     1   --> A'             
     e(  2 -  2) =     -8.94831  eV     1   --> A'             
     e(  3 -  3) =     -8.94686  eV     1   --> A'             
     e(  4 -  4) =     -8.94594  eV     1   --> A'             
     e(  5 -  5) =     -8.94481  eV     1   --> A'             
     e(  6 -  6) =     -8.93551  eV     1   --> A'             
     e(  7 -  7) =     -8.93506  eV     1   --> A'             
     e(  8 -  8) =     -8.93414  eV     1   --> A'             
     e(  9 -  9) =     -8.93341  eV     1   --> A'             
     e( 10 - 10) =     -8.93286  eV     1   --> A'             
     e( 11 - 11) =     -8.92295  eV     1   --> A''            
     e( 12 - 12) =     -8.92258  eV     1   --> A''            
     e( 13 - 13) =     -8.92208  eV     1   --> A''            
     e( 14 - 14) =     -8.92172  eV     1   --> A''            
     e( 15 - 15) =     -8.92151  eV     1   --> A''            
     e( 16 - 16) =     -8.89172  eV     1   --> A'             
     e( 17 - 17) =     -8.89162  eV     1   --> A'             
     e( 18 - 20) =     -8.89121  eV     3   -->   3 A'             
     e( 21 - 21) =     -8.87773  eV     1   --> A''            
     e( 22 - 22) =     -8.87751  eV     1   --> A''            
     e( 23 - 23) =     -8.87728  eV     1   --> A''            
     e( 24 - 25) =     -8.87689  eV     2   -->   2 A''            
     e( 26 - 27) =     -8.86233  eV     2   -->   2 A''            
     e( 28 - 28) =     -8.86219  eV     1   --> A''            
     e( 29 - 29) =     -8.86207  eV     1   --> A''            
     e( 30 - 30) =     -8.86134  eV     1   --> A''            
     e( 31 - 32) =     -8.84061  eV     2   -->   2 A'             
     e( 33 - 33) =     -8.83944  eV     1   --> A'             
     e( 34 - 34) =     -8.83903  eV     1   --> A'             
     e( 35 - 36) =     -8.83885  eV     2   -->   2 A'             
     e( 37 - 37) =     -8.83866  eV     1   --> A'             
     e( 38 - 38) =     -8.83844  eV     1   --> A'             
     e( 39 - 39) =     -8.83769  eV     1   --> A'             
     e( 40 - 40) =     -8.83753  eV     1   --> A'             
     e( 41 - 41) =     -8.82986  eV     1   --> A''            
     e( 42 - 42) =     -8.82973  eV     1   --> A''            
     e( 43 - 43) =     -8.82865  eV     1   --> A''            
     e( 44 - 44) =     -8.82822  eV     1   --> A''            
     e( 45 - 45) =     -8.82683  eV     1   --> A''            
     e( 46 - 46) =     -8.82483  eV     1   --> A''            
     e( 47 - 47) =     -8.82466  eV     1   --> A''            
     e( 48 - 49) =     -8.82451  eV     2   -->   2 A''            
     e( 50 - 50) =     -8.82360  eV     1   --> A''            
     e( 51 - 51) =     -6.23566  eV     1   --> A'             
     e( 52 - 52) =     -6.15714  eV     1   --> A'             
     e( 53 - 53) =     -6.05487  eV     1   --> A'             
     e( 54 - 54) =     -5.83823  eV     1   --> A'             
     e( 55 - 55) =     -5.67636  eV     1   --> A'             
     e( 56 - 56) =     -5.19643  eV     1   --> A'             
     e( 57 - 57) =     -4.98516  eV     1   --> A'             
     e( 58 - 58) =     -4.64173  eV     1   --> A'             
     e( 59 - 59) =     -4.63119  eV     1   --> A''            
     e( 60 - 60) =     -4.61521  eV     1   --> A''            
     e( 61 - 61) =     -4.59747  eV     1   --> A''            
     e( 62 - 62) =     -4.57109  eV     1   --> A''            
     e( 63 - 63) =     -4.55966  eV     1   --> A''            
     e( 64 - 64) =     -4.51263  eV     1   --> A'             
     e( 65 - 65) =     -4.49711  eV     1   --> A'             
     e( 66 - 66) =     -4.48000  eV     1   --> A'             
     e( 67 - 67) =     -4.45428  eV     1   --> A'             
     e( 68 - 68) =     -4.44627  eV     1   --> A'             
     e( 69 - 69) =     -4.44310  eV     1   --> A'             
     e( 70 - 70) =     -4.27522  eV     1   --> A'             
     e( 71 - 71) =     -0.48739  eV     1   --> A''            
     e( 72 - 72) =     -0.45823  eV     1   --> A''            
     e( 73 - 73) =     -0.39192  eV     1   --> A''            
     e( 74 - 74) =     -0.35040  eV     1   --> A''            
     e( 75 - 75) =     -0.31486  eV     1   --> A''            
     e( 76 - 76) =     -0.20980  eV     1   --> A'             
     e( 77 - 77) =     -0.02998  eV     1   --> A'             
     e( 78 - 78) =      0.18236  eV     1   --> A'             
     e( 79 - 79) =      0.41206  eV     1   --> A'             
     e( 80 - 80) =      0.45736  eV     1   --> A'             
     e( 81 - 81) =      0.56266  eV     1   --> A'             
     e( 82 - 82) =      0.57976  eV     1   --> A'             
     e( 83 - 83) =      0.62996  eV     1   --> A'             
     e( 84 - 84) =      0.68791  eV     1   --> A'             
     e( 85 - 85) =      0.84394  eV     1   --> A'             
     e( 86 - 86) =      1.69603  eV     1   --> A'             
     e( 87 - 87) =      2.03451  eV     1   --> A'             
     e( 88 - 88) =      2.38623  eV     1   --> A'             
     e( 89 - 89) =      2.43014  eV     1   --> A''            
     e( 90 - 90) =      2.46147  eV     1   --> A''            
     e( 91 - 91) =      2.57015  eV     1   --> A'             
     e( 92 - 92) =      2.59257  eV     1   --> A''            
     e( 93 - 93) =      2.60495  eV     1   --> A'             
     e( 94 - 94) =      2.63322  eV     1   --> A'             
     e( 95 - 95) =      2.64062  eV     1   --> A'             
     e( 96 - 96) =      2.71055  eV     1   --> A'             
     e( 97 - 97) =      2.75303  eV     1   --> A''            
     e( 98 - 98) =      2.82147  eV     1   --> A'             
     e( 99 - 99) =      2.94444  eV     1   --> A'             
     e(100 -100) =      3.04624  eV     1   --> A'             
     e(101 -101) =      3.07392  eV     1   --> A''            
     e(102 -102) =      3.15408  eV     1   --> A'             
     e(103 -103) =      3.42404  eV     1   --> A''            
     e(104 -104) =      3.43265  eV     1   --> A'             
     e(105 -105) =      3.48498  eV     1   --> A'             
     e(106 -106) =      3.63239  eV     1   --> A''            
     e(107 -107) =      3.65232  eV     1   --> A'             
     e(108 -108) =      3.71151  eV     1   --> A'             
     e(109 -109) =      3.71710  eV     1   --> A''            
     e(110 -110) =      3.71992  eV     1   --> A''            
     e(111 -111) =      3.77143  eV     1   --> A''            
     e(112 -112) =      3.79306  eV     1   --> A'             
     e(113 -113) =      3.80458  eV     1   --> A'             
     e(114 -114) =      3.80927  eV     1   --> A''            
     e(115 -115) =      3.81734  eV     1   --> A'             
     e(116 -116) =      3.81853  eV     1   --> A''            
     e(117 -117) =      3.82818  eV     1   --> A''            
     e(118 -118) =      3.86779  eV     1   --> A'             
     e(119 -119) =      4.06686  eV     1   --> A''            
     e(120 -120) =      4.25429  eV     1   --> A''            
     e(121 -121) =      4.57215  eV     1   --> A'             
     e(122 -122) =      4.71159  eV     1   --> A''            
     e(123 -123) =      4.95371  eV     1   --> A''            
     e(124 -124) =      5.01069  eV     1   --> A'             
     e(125 -125) =      5.03969  eV     1   --> A'             
     e(126 -126) =      5.33234  eV     1   --> A''            
     e(127 -127) =      5.36492  eV     1   --> A'             
     e(128 -128) =      5.41384  eV     1   --> A'             
     e(129 -129) =      5.54668  eV     1   --> A''            
     e(130 -130) =      5.73449  eV     1   --> A''            
     e(131 -131) =      7.72924  eV     1   --> A''            
     e(132 -132) =      7.75348  eV     1   --> A'             
     e(133 -133) =      7.75466  eV     1   --> A'             
     e(134 -134) =      7.77351  eV     1   --> A'             
     e(135 -135) =      7.84213  eV     1   --> A''            
     e(136 -136) =      7.94234  eV     1   --> A''            
     e(137 -137) =      8.03627  eV     1   --> A'             
     e(138 -138) =      8.16144  eV     1   --> A'             
     e(139 -139) =      8.19298  eV     1   --> A'             
     e(140 -140) =      8.19947  eV     1   --> A'             
     e(141 -141) =      8.24326  eV     1   --> A'             
     e(142 -142) =      8.27265  eV     1   --> A'             
     e(143 -143) =      8.31714  eV     1   --> A'             
     e(144 -144) =      8.42094  eV     1   --> A'             
     e(145 -145) =      8.42804  eV     1   --> A''            
     e(146 -146) =      8.60366  eV     1   --> A'             
     e(147 -147) =      8.63802  eV     1   --> A''            
     e(148 -148) =      8.81429  eV     1   --> A'             
     e(149 -149) =      8.90950  eV     1   --> A'             
     e(150 -150) =      8.98439  eV     1   --> A''            
     e(151 -151) =      9.34085  eV     1   --> A'             
     e(152 -152) =      9.44388  eV     1   --> A''            
     e(153 -153) =      9.49619  eV     1   --> A'             
     e(154 -154) =      9.75064  eV     1   --> A'             
     e(155 -155) =      9.92671  eV     1   --> A'             
     e(156 -156) =      9.94117  eV     1   --> A'             

 **************************************************************************

 **************************************************************************

                    xk=(   0.15000,   0.15000,   0.03000  )

     Band symmetry, C_s (m)     point group:

     e(  1 -  1) =     -8.95179  eV     1   --> A'             
     e(  2 -  2) =     -8.95131  eV     1   --> A'             
     e(  3 -  3) =     -8.94961  eV     1   --> A'             
     e(  4 -  4) =     -8.94870  eV     1   --> A'             
     e(  5 -  5) =     -8.94760  eV     1   --> A'             
     e(  6 -  6) =     -8.93449  eV     1   --> A'             
     e(  7 -  7) =     -8.93405  eV     1   --> A'             
     e(  8 -  8) =     -8.93317  eV     1   --> A'             
     e(  9 -  9) =     -8.93253  eV     1   --> A'             
     e( 10 - 10) =     -8.93172  eV     1   --> A'             
     e( 11 - 11) =     -8.92687  eV     1   --> A''            
     e( 12 - 12) =     -8.92648  eV     1   --> A''            
     e( 13 - 13) =     -8.92594  eV     1   --> A''            
     e( 14 - 14) =     -8.92551  eV     1   --> A''            
     e( 15 - 15) =     -8.92493  eV     1   --> A''            
     e( 16 - 16) =     -8.88662  eV     1   --> A'             
     e( 17 - 17) =     -8.88642  eV     1   --> A'             
     e( 18 - 18) =     -8.88611  eV     1   --> A'             
     e( 19 - 19) =     -8.88586  eV     1   --> A'             
     e( 20 - 20) =     -8.88573  eV     1   --> A'             
     e( 21 - 21) =     -8.87803  eV     1   --> A''            
     e( 22 - 22) =     -8.87777  eV     1   --> A''            
     e( 23 - 23) =     -8.87758  eV     1   --> A''            
     e( 24 - 24) =     -8.87721  eV     1   --> A''            
     e( 25 - 25) =     -8.87689  eV     1   --> A''            
     e( 26 - 28) =     -8.85798  eV     3   -->   3 A''            
     e( 29 - 29) =     -8.85774  eV     1   --> A''            
     e( 30 - 30) =     -8.85695  eV     1   --> A''            
     e( 31 - 31) =     -8.84222  eV     1   --> A'             
     e( 32 - 32) =     -8.84204  eV     1   --> A'             
     e( 33 - 33) =     -8.84100  eV     1   --> A'             
     e( 34 - 35) =     -8.84052  eV     2   -->   2 A'             
     e( 36 - 36) =     -8.84029  eV     1   --> A'             
     e( 37 - 38) =     -8.84015  eV     2   -->   2 A'             
     e( 39 - 40) =     -8.83923  eV     2   -->   2 A'             
     e( 41 - 42) =     -8.82913  eV     2   -->   2 A''            
     e( 43 - 43) =     -8.82801  eV     1   --> A''            
     e( 44 - 44) =     -8.82750  eV     1   --> A''            
     e( 45 - 45) =     -8.82613  eV     1   --> A''            
     e( 46 - 47) =     -8.82357  eV     2   -->   2 A''            
     e( 48 - 48) =     -8.82329  eV     1   --> A''            
     e( 49 - 49) =     -8.82317  eV     1   --> A''            
     e( 50 - 50) =     -8.82236  eV     1   --> A''            
     e( 51 - 51) =     -6.36050  eV     1   --> A'             
     e( 52 - 52) =     -6.26604  eV     1   --> A'             
     e( 53 - 53) =     -6.18670  eV     1   --> A'             
     e( 54 - 54) =     -5.92513  eV     1   --> A'             
     e( 55 - 55) =     -5.79698  eV     1   --> A'             
     e( 56 - 56) =     -5.25209  eV     1   --> A'             
     e( 57 - 57) =     -5.08127  eV     1   --> A'             
     e( 58 - 58) =     -4.64873  eV     1   --> A'             
     e( 59 - 59) =     -4.49500  eV     1   --> A''            
     e( 60 - 60) =     -4.48559  eV     1   --> A'             
     e( 61 - 61) =     -4.47901  eV     1   --> A''            
     e( 62 - 62) =     -4.46732  eV     1   --> A''            
     e( 63 - 63) =     -4.44034  eV     1   --> A''            
     e( 64 - 64) =     -4.43284  eV     1   --> A''            
     e( 65 - 65) =     -4.41638  eV     1   --> A'             
     e( 66 - 66) =     -4.40116  eV     1   --> A'             
     e( 67 - 67) =     -4.39010  eV     1   --> A'             
     e( 68 - 68) =     -4.36425  eV     1   --> A'             
     e( 69 - 69) =     -4.35706  eV     1   --> A'             
     e( 70 - 70) =     -4.26242  eV     1   --> A'             
     e( 71 - 71) =     -0.52636  eV     1   --> A''            
     e( 72 - 72) =     -0.52375  eV     1   --> A''            
     e( 73 - 73) =     -0.51801  eV     1   --> A''            
     e( 74 - 74) =     -0.51762  eV     1   --> A''            
     e( 75 - 75) =     -0.51703  eV     1   --> A''            
     e( 76 - 76) =     -0.26184  eV     1   --> A'             
     e( 77 - 77) =      0.02477  eV     1   --> A'             
     e( 78 - 78) =      0.24081  eV     1   --> A'             
     e( 79 - 79) =      0.47164  eV     1   --> A'             
     e( 80 - 80) =      0.48065  eV     1   --> A'             
     e( 81 - 81) =      0.50536  eV     1   --> A'             
     e( 82 - 82) =      0.51230  eV     1   --> A'             
     e( 83 - 83) =      0.51854  eV     1   --> A'             
     e( 84 - 84) =      0.85003  eV     1   --> A'             
     e( 85 - 85) =      1.10793  eV     1   --> A'             
     e( 86 - 86) =      2.15868  eV     1   --> A'             
     e( 87 - 87) =      2.26606  eV     1   --> A''            
     e( 88 - 88) =      2.31477  eV     1   --> A''            
     e( 89 - 89) =      2.44425  eV     1   --> A'             
     e( 90 - 90) =      2.45078  eV     1   --> A'             
     e( 91 - 91) =      2.47673  eV     1   --> A'             
     e( 92 - 92) =      2.55938  eV     1   --> A''            
     e( 93 - 93) =      2.66506  eV     1   --> A'             
     e( 94 - 94) =      2.67414  eV     1   --> A'             
     e( 95 - 95) =      2.71997  eV     1   --> A''            
     e( 96 - 96) =      2.79848  eV     1   --> A'             
     e( 97 - 97) =      2.84538  eV     1   --> A'             
     e( 98 - 98) =      2.96590  eV     1   --> A'             
     e( 99 - 99) =      3.15512  eV     1   --> A'             
     e(100 -100) =      3.16616  eV     1   --> A''            
     e(101 -101) =      3.33163  eV     1   --> A'             
     e(102 -102) =      3.36484  eV     1   --> A''            
     e(103 -103) =      3.41974  eV     1   --> A'             
     e(104 -104) =      3.45472  eV     1   --> A''            
     e(105 -105) =      3.50087  eV     1   --> A'             
     e(106 -106) =      3.50404  eV     1   --> A''            
     e(107 -107) =      3.51674  eV     1   --> A''            
     e(108 -108) =      3.54267  eV     1   --> A'             
     e(109 -109) =      3.55727  eV     1   --> A'             
     e(110 -110) =      3.61658  eV     1   --> A''            
     e(111 -111) =      3.61883  eV     1   --> A'             
     e(112 -112) =      3.61942  eV     1   --> A''            
     e(113 -113) =      3.62312  eV     1   --> A''            
     e(114 -114) =      3.63218  eV     1   --> A'             
     e(115 -115) =      3.65399  eV     1   --> A'             
     e(116 -116) =      3.70633  eV     1   --> A''            
     e(117 -117) =      3.83264  eV     1   --> A'             
     e(118 -118) =      3.99705  eV     1   --> A''            
     e(119 -119) =      4.14613  eV     1   --> A''            
     e(120 -120) =      4.29998  eV     1   --> A'             
     e(121 -121) =      4.57650  eV     1   --> A'             
     e(122 -122) =      4.68855  eV     1   --> A''            
     e(123 -123) =      4.88593  eV     1   --> A''            
     e(124 -124) =      4.90005  eV     1   --> A'             
     e(125 -125) =      5.36245  eV     1   --> A'             
     e(126 -126) =      5.37223  eV     1   --> A''            
     e(127 -127) =      5.50065  eV     1   --> A'             
     e(128 -128) =      5.55526  eV     1   --> A''            
     e(129 -129) =      5.58613  eV     1   --> A'             
     e(130 -130) =      5.80958  eV     1   --> A''            
     e(131 -131) =      7.58862  eV     1   --> A''            
     e(132 -132) =      7.62281  eV     1   --> A'             
     e(133 -133) =      7.62670  eV     1   --> A''            
     e(134 -134) =      7.65156  eV     1   --> A'             
     e(135 -135) =      7.73442  eV     1   --> A'             
     e(136 -136) =      7.77965  eV     1   --> A''            
     e(137 -137) =      7.84300  eV     1   --> A'             
     e(138 -138) =      7.98009  eV     1   --> A'             
     e(139 -139) =      8.08835  eV     1   --> A'             
     e(140 -140) =      8.14865  eV     1   --> A'             
     e(141 -141) =      8.15689  eV     1   --> A'             
     e(142 -142) =      8.15915  eV     1   --> A''            
     e(143 -143) =      8.19062  eV     1   --> A'             
     e(144 -144) =      8.23637  eV     1   --> A'             
     e(145 -145) =      8.28548  eV     1   --> A'             
     e(146 -146) =      8.66815  eV     1   --> A''            
     e(147 -147) =      8.75992  eV     1   --> A'             
     e(148 -148) =      8.83463  eV     1   --> A'             
     e(149 -149) =      8.93636  eV     1   --> A'             
     e(150 -150) =      9.03347  eV     1   --> A''            
     e(151 -151) =      9.06784  eV     1   --> A'             
     e(152 -152) =      9.07257  eV     1   --> A'             
     e(153 -153) =      9.15975  eV     1   --> A''            
     e(154 -154) =      9.20859  eV     1   --> A'             
     e(155 -155) =      9.32946  eV     1   --> A'             
     e(156 -156) =      9.54175  eV     1   --> A''            

 **************************************************************************

 **************************************************************************

                    xk=(   0.10000,   0.10000,   0.02000  )

     Band symmetry, C_s (m)     point group:

     e(  1 -  1) =     -8.95409  eV     1   --> A'             
     e(  2 -  2) =     -8.95371  eV     1   --> A'             
     e(  3 -  3) =     -8.95182  eV     1   --> A'             
     e(  4 -  4) =     -8.95115  eV     1   --> A'             
     e(  5 -  5) =     -8.94988  eV     1   --> A'             
     e(  6 -  6) =     -8.93378  eV     1   --> A'             
     e(  7 -  7) =     -8.93330  eV     1   --> A'             
     e(  8 -  8) =     -8.93230  eV     1   --> A'             
     e(  9 -  9) =     -8.93173  eV     1   --> A'             
     e( 10 - 10) =     -8.93108  eV     1   --> A'             
     e( 11 - 11) =     -8.93019  eV     1   --> A''            
     e( 12 - 12) =     -8.92976  eV     1   --> A''            
     e( 13 - 13) =     -8.92910  eV     1   --> A''            
     e( 14 - 14) =     -8.92858  eV     1   --> A''            
     e( 15 - 15) =     -8.92767  eV     1   --> A''            
     e( 16 - 16) =     -8.88217  eV     1   --> A'             
     e( 17 - 17) =     -8.88194  eV     1   --> A'             
[...]
     e(142 -142) =      7.96670  eV     1   --> A              
     e(143 -143) =      8.13705  eV     1   --> A              
     e(144 -144) =      8.23228  eV     1   --> A              
     e(145 -145) =      8.25076  eV     1   --> A              
     e(146 -146) =      8.32299  eV     1   --> A              
     e(147 -147) =      8.36284  eV     1   --> A              
     e(148 -148) =      8.50610  eV     1   --> A              
     e(149 -149) =      8.53401  eV     1   --> A              
     e(150 -150) =      8.65484  eV     1   --> A              
     e(151 -151) =      8.65839  eV     1   --> A              
     e(152 -152) =      8.69032  eV     1   --> A              
     e(153 -153) =      8.78567  eV     1   --> A              
     e(154 -154) =      9.04992  eV     1   --> A              
     e(155 -155) =      9.06857  eV     1   --> A              
     e(156 -156) =      9.12731  eV     1   --> A              

 **************************************************************************

 **************************************************************************

                    xk=(   0.05000,   0.00000,   0.01000  )

     Band symmetry, C_1 (1)     point group:

     e(  1 -  1) =     -8.95601  eV     1   --> A              
     e(  2 -  2) =     -8.95571  eV     1   --> A              
     e(  3 -  3) =     -8.95354  eV     1   --> A              
     e(  4 -  4) =     -8.95303  eV     1   --> A              
     e(  5 -  5) =     -8.95155  eV     1   --> A              
     e(  6 -  6) =     -8.93312  eV     1   --> A              
     e(  7 -  7) =     -8.93287  eV     1   --> A              
     e(  8 -  8) =     -8.93273  eV     1   --> A              
     e(  9 -  9) =     -8.93248  eV     1   --> A              
     e( 10 - 10) =     -8.93156  eV     1   --> A              
     e( 11 - 11) =     -8.93128  eV     1   --> A              
     e( 12 - 12) =     -8.93112  eV     1   --> A              
     e( 13 - 13) =     -8.93082  eV     1   --> A              
     e( 14 - 14) =     -8.93061  eV     1   --> A              
     e( 15 - 15) =     -8.93037  eV     1   --> A              
     e( 16 - 16) =     -8.87874  eV     1   --> A              
     e( 17 - 17) =     -8.87860  eV     1   --> A              
     e( 18 - 18) =     -8.87844  eV     1   --> A              
     e( 19 - 19) =     -8.87830  eV     1   --> A              
     e( 20 - 20) =     -8.87818  eV     1   --> A              
     e( 21 - 22) =     -8.87798  eV     2   -->   2 A              
     e( 23 - 23) =     -8.87783  eV     1   --> A              
     e( 24 - 25) =     -8.87753  eV     2   -->   2 A              
     e( 26 - 27) =     -8.85218  eV     2   -->   2 A              
     e( 28 - 28) =     -8.85177  eV     1   --> A              
     e( 29 - 29) =     -8.85162  eV     1   --> A              
     e( 30 - 30) =     -8.85085  eV     1   --> A              
     e( 31 - 31) =     -8.84454  eV     1   --> A              
     e( 32 - 32) =     -8.84418  eV     1   --> A              
     e( 33 - 33) =     -8.84317  eV     1   --> A              
     e( 34 - 35) =     -8.84302  eV     2   -->   2 A              
     e( 36 - 38) =     -8.84274  eV     3   -->   3 A              
     e( 39 - 39) =     -8.84182  eV     1   --> A              
     e( 40 - 40) =     -8.84134  eV     1   --> A              
     e( 41 - 42) =     -8.82811  eV     2   -->   2 A              
     e( 43 - 43) =     -8.82695  eV     1   --> A              
     e( 44 - 44) =     -8.82634  eV     1   --> A              
     e( 45 - 45) =     -8.82502  eV     1   --> A              
     e( 46 - 46) =     -8.82199  eV     1   --> A              
     e( 47 - 47) =     -8.82183  eV     1   --> A              
     e( 48 - 48) =     -8.82166  eV     1   --> A              
     e( 49 - 49) =     -8.82147  eV     1   --> A              
     e( 50 - 50) =     -8.82070  eV     1   --> A              
     e( 51 - 51) =     -6.51582  eV     1   --> A              
     e( 52 - 52) =     -6.39060  eV     1   --> A              
     e( 53 - 53) =     -6.36320  eV     1   --> A              
     e( 54 - 54) =     -6.01639  eV     1   --> A              
     e( 55 - 55) =     -5.97129  eV     1   --> A              
     e( 56 - 56) =     -5.29966  eV     1   --> A              
     e( 57 - 57) =     -5.23833  eV     1   --> A              
     e( 58 - 58) =     -4.64172  eV     1   --> A              
     e( 59 - 59) =     -4.58129  eV     1   --> A              
     e( 60 - 60) =     -4.28689  eV     1   --> A              
     e( 61 - 61) =     -4.26992  eV     1   --> A              
     e( 62 - 62) =     -4.26672  eV     1   --> A              
     e( 63 - 63) =     -4.26323  eV     1   --> A              
     e( 64 - 64) =     -4.25935  eV     1   --> A              
     e( 65 - 65) =     -4.24680  eV     1   --> A              
     e( 66 - 66) =     -4.24451  eV     1   --> A              
     e( 67 - 67) =     -4.23763  eV     1   --> A              
     e( 68 - 68) =     -4.23533  eV     1   --> A              
     e( 69 - 69) =     -4.22678  eV     1   --> A              
     e( 70 - 70) =     -4.22585  eV     1   --> A              
     e( 71 - 71) =     -0.85664  eV     1   --> A              
     e( 72 - 72) =     -0.79828  eV     1   --> A              
     e( 73 - 73) =     -0.78672  eV     1   --> A              
     e( 74 - 74) =     -0.67999  eV     1   --> A              
     e( 75 - 75) =     -0.67164  eV     1   --> A              
     e( 76 - 76) =     -0.34204  eV     1   --> A              
     e( 77 - 77) =      0.12976  eV     1   --> A              
     e( 78 - 78) =      0.22398  eV     1   --> A              
     e( 79 - 79) =      0.23997  eV     1   --> A              
     e( 80 - 80) =      0.31003  eV     1   --> A              
     e( 81 - 81) =      0.32415  eV     1   --> A              
     e( 82 - 82) =      0.45898  eV     1   --> A              
     e( 83 - 83) =      0.47000  eV     1   --> A              
     e( 84 - 84) =      1.25032  eV     1   --> A              
     e( 85 - 85) =      1.36785  eV     1   --> A              
     e( 86 - 86) =      2.36076  eV     1   --> A              
     e( 87 - 87) =      2.38859  eV     1   --> A              
     e( 88 - 88) =      2.54625  eV     1   --> A              
     e( 89 - 89) =      2.57573  eV     1   --> A              
     e( 90 - 90) =      2.80385  eV     1   --> A              
     e( 91 - 91) =      2.81717  eV     1   --> A              
     e( 92 - 92) =      2.81992  eV     1   --> A              
     e( 93 - 93) =      2.87582  eV     1   --> A              
     e( 94 - 94) =      2.87628  eV     1   --> A              
     e( 95 - 95) =      2.90228  eV     1   --> A              
     e( 96 - 96) =      2.96197  eV     1   --> A              
     e( 97 - 97) =      3.00563  eV     1   --> A              
     e( 98 - 98) =      3.06043  eV     1   --> A              
     e( 99 - 99) =      3.09442  eV     1   --> A              
     e(100 -100) =      3.10197  eV     1   --> A              
     e(101 -101) =      3.14107  eV     1   --> A              
     e(102 -102) =      3.23609  eV     1   --> A              
     e(103 -103) =      3.27186  eV     1   --> A              
     e(104 -104) =      3.31960  eV     1   --> A              
     e(105 -105) =      3.33799  eV     1   --> A              
     e(106 -106) =      3.34282  eV     1   --> A              
     e(107 -107) =      3.34330  eV     1   --> A              
     e(108 -108) =      3.37272  eV     1   --> A              
     e(109 -109) =      3.39450  eV     1   --> A              
     e(110 -110) =      3.47087  eV     1   --> A              
     e(111 -111) =      3.49129  eV     1   --> A              
     e(112 -112) =      3.50061  eV     1   --> A              
     e(113 -113) =      3.52307  eV     1   --> A              
     e(114 -114) =      3.89023  eV     1   --> A              
     e(115 -115) =      3.93808  eV     1   --> A              
     e(116 -116) =      3.94305  eV     1   --> A              
     e(117 -117) =      3.99359  eV     1   --> A              
     e(118 -118) =      4.43685  eV     1   --> A              
     e(119 -119) =      4.58805  eV     1   --> A              
     e(120 -120) =      4.64571  eV     1   --> A              
     e(121 -121) =      4.71604  eV     1   --> A              
     e(122 -122) =      4.71802  eV     1   --> A              
     e(123 -123) =      4.79146  eV     1   --> A              
     e(124 -124) =      5.41262  eV     1   --> A              
     e(125 -125) =      5.48400  eV     1   --> A              
     e(126 -126) =      5.50607  eV     1   --> A              
     e(127 -127) =      5.57773  eV     1   --> A              
     e(128 -128) =      5.72216  eV     1   --> A              
     e(129 -129) =      5.80243  eV     1   --> A              
     e(130 -130) =      5.86573  eV     1   --> A              
     e(131 -131) =      7.04543  eV     1   --> A              
     e(132 -132) =      7.27943  eV     1   --> A              
     e(133 -133) =      7.33035  eV     1   --> A              
     e(134 -134) =      7.36167  eV     1   --> A              
     e(135 -135) =      7.37342  eV     1   --> A              
     e(136 -136) =      7.41344  eV     1   --> A              
     e(137 -137) =      7.48268  eV     1   --> A              
     e(138 -138) =      7.72292  eV     1   --> A              
     e(139 -139) =      7.76971  eV     1   --> A              
     e(140 -140) =      7.83763  eV     1   --> A              
     e(141 -141) =      7.96117  eV     1   --> A              
     e(142 -142) =      7.99845  eV     1   --> A              
     e(143 -143) =      8.07807  eV     1   --> A              
     e(144 -144) =      8.11218  eV     1   --> A              
     e(145 -145) =      8.13201  eV     1   --> A              
     e(146 -146) =      8.20203  eV     1   --> A              
     e(147 -147) =      8.23610  eV     1   --> A              
     e(148 -148) =      8.38488  eV     1   --> A              
     e(149 -149) =      8.40003  eV     1   --> A              
     e(150 -150) =      8.50631  eV     1   --> A              
     e(151 -151) =      8.53341  eV     1   --> A              
     e(152 -152) =      8.60102  eV     1   --> A              
     e(153 -153) =      8.61068  eV     1   --> A              
     e(154 -154) =      8.99592  eV     1   --> A              
     e(155 -155) =      9.02710  eV     1   --> A              
     e(156 -156) =      9.08192  eV     1   --> A              

 **************************************************************************

 **************************************************************************

                    xk=(   0.00000,   0.00000,   0.00000  )

     point group D_2d (-42m)
     there are  5 classes
     the character table:

       E     2S4   C2    2C2'  2s_d 
A_1    1.00  1.00  1.00  1.00  1.00
A_2    1.00  1.00  1.00 -1.00 -1.00
B_1    1.00 -1.00  1.00  1.00 -1.00
B_2    1.00 -1.00  1.00 -1.00  1.00
E      2.00  0.00 -2.00  0.00  0.00

     the symmetry operations in each class and the name of the first element:

     E        1
                                                                 
     2S4      7    8
                                                                 
     C2       2
                                                                 
     2C2'     3    4
                                                                 
     2s_d     5    6
                                                                 

     Band symmetry, D_2d (-42m) point group:

     e(  1 -  1) =     -8.95618  eV     1   --> A_1  X_1  W_1  
     e(  2 -  2) =     -8.95592  eV     1   --> B_2  X_3  W_2  
     e(  3 -  3) =     -8.95388  eV     1   --> A_1  X_1  W_1  
     e(  4 -  4) =     -8.95343  eV     1   --> B_2  X_3  W_2  
     e(  5 -  5) =     -8.95184  eV     1   --> B_2  X_3  W_2  
     e(  6 -  7) =     -8.93311  eV     2   --> E    X_5  W_3  
     e(  8 -  9) =     -8.93276  eV     2   --> E    X_5  W_3  
     e( 10 - 11) =     -8.93147  eV     2   --> E    X_5  W_3  
     e( 12 - 13) =     -8.93105  eV     2   --> E    X_5  W_3  
     e( 14 - 15) =     -8.93064  eV     2   --> E    X_5  W_3  
     e( 16 - 17) =     -8.87829  eV     2   --> E    X_5  W_3  
     e( 18 - 19) =     -8.87815  eV     2   --> E    X_5  W_3  
     e( 20 - 21) =     -8.87785  eV     2   --> E    X_5  W_3  
     e( 22 - 23) =     -8.87754  eV     2   --> E    X_5  W_3  
     e( 24 - 25) =     -8.87739  eV     2   --> E    X_5  W_3  
     e( 26 - 26) =     -8.85160  eV     1   --> A_2  X_4  W_2' 
     e( 27 - 29) =     -8.85147  eV     3   --> A_2  X_4  W_2' 
     e( 27 - 29) =     -8.85147  eV     3   -->   2 B_1  X_2  W_1' 
     e( 30 - 30) =     -8.85044  eV     1   --> A_2  X_4  W_2' 
     e( 31 - 31) =     -8.84471  eV     1   --> A_1  X_1  W_1  
     e( 32 - 32) =     -8.84437  eV     1   --> B_2  X_3  W_2  
     e( 33 - 33) =     -8.84336  eV     1   --> A_1  X_1  W_1  
     e( 34 - 34) =     -8.84308  eV     1   --> A_1  X_1  W_1  
     e( 35 - 36) =     -8.84295  eV     2   -->   2 B_2  X_3  W_2  
     e( 37 - 37) =     -8.84283  eV     1   --> A_1  X_1  W_1  
     e( 38 - 38) =     -8.84272  eV     1   --> B_2  X_3  W_2  
     e( 39 - 39) =     -8.84188  eV     1   --> A_1  X_1  W_1  
     e( 40 - 40) =     -8.84154  eV     1   --> A_1  X_1  W_1  
     e( 41 - 42) =     -8.82800  eV     2   --> A_2  X_4  W_2' 
     e( 41 - 42) =     -8.82800  eV     2   --> B_1  X_2  W_1' 
     e( 43 - 43) =     -8.82687  eV     1   --> B_1  X_2  W_1' 
     e( 44 - 44) =     -8.82587  eV     1   --> A_2  X_4  W_2' 
     e( 45 - 45) =     -8.82470  eV     1   --> B_1  X_2  W_1' 
     e( 46 - 47) =     -8.82190  eV     2   --> A_2  X_4  W_2' 
     e( 46 - 47) =     -8.82190  eV     2   --> B_1  X_2  W_1' 
     e( 48 - 48) =     -8.82159  eV     1   --> B_1  X_2  W_1' 
     e( 49 - 49) =     -8.82119  eV     1   --> A_2  X_4  W_2' 
     e( 50 - 50) =     -8.82052  eV     1   --> B_1  X_2  W_1' 
     e( 51 - 51) =     -6.52528  eV     1   --> A_1  X_1  W_1  
     e( 52 - 52) =     -6.38620  eV     1   --> B_2  X_3  W_2  
     e( 53 - 53) =     -6.38596  eV     1   --> A_1  X_1  W_1  
     e( 54 - 54) =     -6.00193  eV     1   --> B_2  X_3  W_2  
     e( 55 - 55) =     -6.00173  eV     1   --> A_1  X_1  W_1  
     e( 56 - 56) =     -5.27563  eV     1   --> A_1  X_1  W_1  
     e( 57 - 57) =     -5.27544  eV     1   --> B_2  X_3  W_2  
     e( 58 - 58) =     -4.61470  eV     1   --> A_1  X_1  W_1  
     e( 59 - 59) =     -4.61450  eV     1   --> B_2  X_3  W_2  
     e( 60 - 60) =     -4.26336  eV     1   --> B_2  X_3  W_2  
     e( 61 - 62) =     -4.26053  eV     2   --> E    X_5  W_3  
     e( 63 - 64) =     -4.24479  eV     2   --> E    X_5  W_3  
     e( 65 - 66) =     -4.24456  eV     2   --> E    X_5  W_3  
     e( 67 - 68) =     -4.22008  eV     2   --> E    X_5  W_3  
     e( 69 - 70) =     -4.21969  eV     2   --> E    X_5  W_3  
     e( 71 - 71) =     -0.88037  eV     1   --> B_1  X_2  W_1' 
     e( 72 - 72) =     -0.81300  eV     1   --> A_2  X_4  W_2' 
     e( 73 - 73) =     -0.81274  eV     1   --> B_1  X_2  W_1' 
     e( 74 - 74) =     -0.68921  eV     1   --> A_2  X_4  W_2' 
     e( 75 - 75) =     -0.68885  eV     1   --> B_1  X_2  W_1' 
     e( 76 - 76) =     -0.34816  eV     1   --> A_1  X_1  W_1  
     e( 77 - 77) =      0.17768  eV     1   --> B_2  X_3  W_2  
     e( 78 - 78) =      0.17785  eV     1   --> A_1  X_1  W_1  
     e( 79 - 79) =      0.22050  eV     1   --> A_1  X_1  W_1  
     e( 80 - 80) =      0.30189  eV     1   --> B_2  X_3  W_2  
     e( 81 - 81) =      0.30208  eV     1   --> A_1  X_1  W_1  
     e( 82 - 82) =      0.45957  eV     1   --> A_1  X_1  W_1  
     e( 83 - 83) =      0.45990  eV     1   --> B_2  X_3  W_2  
     e( 84 - 84) =      1.32739  eV     1   --> B_2  X_3  W_2  
     e( 85 - 85) =      1.32758  eV     1   --> A_1  X_1  W_1  
     e( 86 - 86) =      2.42978  eV     1   --> B_1  X_2  W_1' 
     e( 87 - 87) =      2.43013  eV     1   --> A_2  X_4  W_2' 
     e( 88 - 88) =      2.65105  eV     1   --> B_2  X_3  W_2  
     e( 89 - 89) =      2.65139  eV     1   --> A_1  X_1  W_1  
     e( 90 - 91) =      2.74622  eV     2   --> E    X_5  W_3  
     e( 92 - 93) =      2.74658  eV     2   --> E    X_5  W_3  
     e( 94 - 94) =      2.95016  eV     1   --> B_1  X_2  W_1' 
     e( 95 - 95) =      2.95039  eV     1   --> A_2  X_4  W_2' 
     e( 96 - 96) =      3.07870  eV     1   --> A_1  X_1  W_1  
     e( 97 - 97) =      3.07889  eV     1   --> B_2  X_3  W_2  
     e( 98 - 99) =      3.09415  eV     2   --> E    X_5  W_3  
     e(100 -101) =      3.09434  eV     2   --> E    X_5  W_3  
     e(102 -102) =      3.09718  eV     1   --> A_1  X_1  W_1  
     e(103 -103) =      3.09732  eV     1   --> B_2  X_3  W_2  
     e(104 -104) =      3.34236  eV     1   --> A_2  X_4  W_2' 
     e(105 -106) =      3.36231  eV     2   --> E    X_5  W_3  
     e(107 -108) =      3.36379  eV     2   --> E    X_5  W_3  
     e(109 -109) =      3.39335  eV     1   --> B_2  X_3  W_2  
     e(110 -111) =      3.51686  eV     2   --> E    X_5  W_3  
     e(112 -113) =      3.51710  eV     2   --> E    X_5  W_3  
     e(114 -115) =      3.95024  eV     2   --> E    X_5  W_3  
     e(116 -117) =      3.95041  eV     2   --> E    X_5  W_3  
     e(118 -118) =      4.60779  eV     1   --> A_1  X_1  W_1  
     e(119 -119) =      4.60790  eV     1   --> B_2  X_3  W_2  
     e(120 -121) =      4.71833  eV     2   --> E    X_5  W_3  
     e(122 -123) =      4.71849  eV     2   --> E    X_5  W_3  
     e(124 -125) =      5.48173  eV     2   --> E    X_5  W_3  
     e(126 -127) =      5.48191  eV     2   --> E    X_5  W_3  
     e(128 -128) =      5.81612  eV     1   --> B_2  X_3  W_2  
     e(129 -130) =      5.89772  eV     2   --> E    X_5  W_3  
     e(131 -131) =      6.89175  eV     1   --> A_1  X_1  W_1  
     e(132 -133) =      7.29450  eV     2   --> A_1  X_1  W_1  
     e(132 -133) =      7.29450  eV     2   --> B_2  X_3  W_2  
     e(134 -134) =      7.31802  eV     1   --> B_1  X_2  W_1' 
     e(135 -136) =      7.32328  eV     2   --> E    X_5  W_3  
     e(137 -137) =      7.43694  eV     1   --> B_2  X_3  W_2  
     e(138 -138) =      7.69512  eV     1   --> B_2  X_3  W_2  
     e(139 -139) =      7.69530  eV     1   --> A_1  X_1  W_1  
     e(140 -140) =      8.01827  eV     1   --> A_1  X_1  W_1  
     e(141 -142) =      8.05407  eV     2   --> E    X_5  W_3  
     e(143 -144) =      8.05428  eV     2   --> E    X_5  W_3  
     e(145 -146) =      8.12819  eV     2   --> A_1  X_1  W_1  
     e(145 -146) =      8.12819  eV     2   --> B_2  X_3  W_2  
     e(147 -148) =      8.13413  eV     2   --> A_2  X_4  W_2' 
     e(147 -148) =      8.13413  eV     2   --> B_1  X_2  W_1' 
     e(149 -149) =      8.36590  eV     1   --> A_1  X_1  W_1  
     e(150 -150) =      8.51326  eV     1   --> A_1  X_1  W_1  
     e(151 -151) =      8.51345  eV     1   --> B_2  X_3  W_2  
     e(152 -152) =      8.54983  eV     1   --> B_2  X_3  W_2  
     e(153 -153) =      8.54996  eV     1   --> A_1  X_1  W_1  
     e(154 -155) =      9.00749  eV     2   --> A_1  X_1  W_1  
     e(154 -155) =      9.00749  eV     2   --> B_2  X_3  W_2  
     e(156 -156) =      9.03389  eV     1   -->   ?

 **************************************************************************

     BANDS        :   2m25.62s CPU   2m57.36s WALL


   This run was terminated on:  22:12:38   5Jan2025            

=------------------------------------------------------------------------------=
   JOB DONE.
=------------------------------------------------------------------------------=
