
     Program PWSCF v.7.0 starts on  5Jan2025 at 20:16:15 

     This program is part of the open-source Quantum ESPRESSO suite
     for quantum simulation of materials; please cite
         "P. Giannozzi et al., J. Phys.:Condens. Matter 21 395502 (2009);
         "P. Giannozzi et al., J. Phys.:Condens. Matter 29 465901 (2017);
         "P. Giannozzi et al., J. Chem. Phys. 152 154105 (2020);
          URL http://www.quantum-espresso.org", 
     in publications or presentations arising from this work. More details at
     http://www.quantum-espresso.org/quote

     Parallel version (MPI & OpenMP), running on       2 processor cores
     Number of MPI processes:                 2
     Threads/MPI process:                     1

     MPI processes distributed on     1 nodes
     R & G space division:  proc/nbgrp/npool/nimage =       2
     3046 MiB available memory on the printing compute node when the environment starts

     Reading input from pw.bands.n1.5Ao.in

     Current dimensions of program PWSCF are:
     Max number of different atomic species (ntypx) = 10
     Max number of k-points (npk) =  40000
     Max angular momentum in pseudopotentials (lmaxx) =  4

     Atomic positions and unit cell read from directory:
     ./outputs/gaalas_sl.save/
     Atomic positions from file used, from input discarded

     file Al.pbe-n-kjpaw_psl.1.0.0.UPF: wavefunction(s)  3S 3P renormalized
     file Ga.pbe-dn-kjpaw_psl.1.0.0.UPF: wavefunction(s)  4S renormalized

     IMPORTANT: XC functional enforced from input :
     Exchange-correlation= PBE
                           (   1   4   3   4   0   0   0)
     Any further DFT definition will be discarded
     Please, verify this is what you really want

     Found identity + (  0.5000  0.5000  0.0000) symmetry
     This is a supercell, fractional translations are disabled
     Message from routine setup:
     using ibrav=0 with symmetry is DISCOURAGED, use correct ibrav instead

     Subspace diagonalization in iterative solution of the eigenvalue problem:
     a serial algorithm will be used


     Parallelization info
     --------------------
     sticks:   dense  smooth     PW     G-vecs:    dense   smooth      PW
     Min         546     546    158                67962    67962   10514
     Max         547     547    159                67965    67965   10519
     Sum        1093    1093    317               135927   135927   21033

     Using Slab Decomposition



     bravais-lattice index     =            0
     lattice parameter (alat)  =      10.6974  a.u.
     unit-cell volume          =    6120.6851 (a.u.)^3
     number of atoms/cell      =           40
     number of atomic types    =            3
     number of electrons       =       260.00
     number of Kohn-Sham states=          156
     kinetic-energy cutoff     =      30.0000  Ry
     charge density cutoff     =     120.0000  Ry
     Exchange-correlation= PBE
                           (   1   4   3   4   0   0   0)

     celldm(1)=  10.697362  celldm(2)=   0.000000  celldm(3)=   0.000000
     celldm(4)=   0.000000  celldm(5)=   0.000000  celldm(6)=   0.000000

     crystal axes: (cart. coord. in units of alat)
               a(1) = (   1.000000   0.000000   0.000000 )  
               a(2) = (   0.000000   1.000000   0.000000 )  
               a(3) = (   0.000000   0.000000   5.000000 )  

     reciprocal axes: (cart. coord. in units 2 pi/alat)
               b(1) = (  1.000000  0.000000  0.000000 )  
               b(2) = (  0.000000  1.000000  0.000000 )  
               b(3) = (  0.000000  0.000000  0.200000 )  


     PseudoPot. # 1 for Al read from file:
     ../../Chapter11/Pseudopotentials/Al.pbe-n-kjpaw_psl.1.0.0.UPF
     MD5 check sum: 502b6b27b9c6270cab5dd1084b96fa6d
     Pseudo is Projector augmented-wave + core cor, Zval =  3.0
     Generated using &quot;atomic&quot; code by A. Dal Corso  v.6.3
     Shape of augmentation charge: PSQ
     Using radial grid of 1135 points,  6 beta functions with: 
                l(1) =   0
                l(2) =   0
                l(3) =   1
                l(4) =   1
                l(5) =   2
                l(6) =   2
     Q(r) pseudized with 0 coefficients 


     PseudoPot. # 2 for As read from file:
     ../../Chapter11/Pseudopotentials/As.pbe-n-kjpaw_psl.1.0.0.UPF
     MD5 check sum: 21b474db91924651be503153fb2dbf55
     Pseudo is Projector augmented-wave + core cor, Zval =  5.0
     Generated using &quot;atomic&quot; code by A. Dal Corso  v.6.3
     Shape of augmentation charge: PSQ
     Using radial grid of 1209 points,  4 beta functions with: 
                l(1) =   0
                l(2) =   0
                l(3) =   1
                l(4) =   1
     Q(r) pseudized with 0 coefficients 


     PseudoPot. # 3 for Ga read from file:
     ../../Chapter11/Pseudopotentials/Ga.pbe-dn-kjpaw_psl.1.0.0.UPF
     MD5 check sum: 50ce49cbf7e0a40ad8623bf41840a268
     Pseudo is Projector augmented-wave + core cor, Zval = 13.0
     Generated using &quot;atomic&quot; code by A. Dal Corso  v.6.3
     Shape of augmentation charge: PSQ
     Using radial grid of 1205 points,  6 beta functions with: 
                l(1) =   0
                l(2) =   0
                l(3) =   1
                l(4) =   1
                l(5) =   2
                l(6) =   2
     Q(r) pseudized with 0 coefficients 


     atomic species   valence    mass     pseudopotential
        Al             3.00    26.98100     Al( 1.00)
        As             5.00    74.92100     As( 1.00)
        Ga            13.00    69.72300     Ga( 1.00)

     Starting magnetic structure 
     atomic species   magnetization
        Al           1.000
        As           1.000
        Ga           1.000

      8 Sym. Ops. (no inversion) found



   Cartesian axes

     site n.     atom                  positions (alat units)
         1           As  tau(   1) = (   0.2500000   0.2500000   0.2500000  )
         2           As  tau(   2) = (   0.7500000   0.2500000   0.7500000  )
         3           As  tau(   3) = (   0.7500000   0.7500000   0.2500000  )
         4           As  tau(   4) = (   0.2500000   0.7500000   0.7500000  )
         5           As  tau(   5) = (   0.2500000   0.2500000   4.2500000  )
         6           As  tau(   6) = (   0.2500000   0.2500000   2.2500000  )
         7           As  tau(   7) = (   0.2500000   0.2500000   1.2500000  )
         8           As  tau(   8) = (   0.2500000   0.2500000   3.2500000  )
         9           As  tau(   9) = (   0.7500000   0.2500000   4.7500000  )
        10           As  tau(  10) = (   0.7500000   0.2500000   2.7500000  )
        11           As  tau(  11) = (   0.7500000   0.2500000   1.7500000  )
        12           As  tau(  12) = (   0.7500000   0.2500000   3.7500000  )
        13           As  tau(  13) = (   0.7500000   0.7500000   4.2500000  )
        14           As  tau(  14) = (   0.7500000   0.7500000   2.2500000  )
        15           As  tau(  15) = (   0.7500000   0.7500000   1.2500000  )
        16           As  tau(  16) = (   0.7500000   0.7500000   3.2500000  )
        17           As  tau(  17) = (   0.2500000   0.7500000   4.7500000  )
        18           As  tau(  18) = (   0.2500000   0.7500000   2.7500000  )
        19           As  tau(  19) = (   0.2500000   0.7500000   1.7500000  )
        20           As  tau(  20) = (   0.2500000   0.7500000   3.7500000  )
        21           Al  tau(  21) = (   0.0000000   0.0000000   0.0000000  )
        22           Al  tau(  22) = (   0.5000000   0.5000000   0.0000000  )
        23           Ga  tau(  23) = (   0.5000000   0.0000000   0.5000000  )
        24           Ga  tau(  24) = (   0.0000000   0.5000000   0.5000000  )
        25           Al  tau(  25) = (   0.0000000   0.0000000   1.0000000  )
        26           Al  tau(  26) = (   0.5000000   0.5000000   1.0000000  )
        27           Ga  tau(  27) = (   0.5000000   0.0000000   1.5000000  )
        28           Ga  tau(  28) = (   0.0000000   0.5000000   1.5000000  )
        29           Al  tau(  29) = (   0.0000000   0.0000000   2.0000000  )
        30           Al  tau(  30) = (   0.5000000   0.5000000   2.0000000  )
        31           Ga  tau(  31) = (   0.5000000   0.0000000   2.5000000  )
        32           Ga  tau(  32) = (   0.0000000   0.5000000   2.5000000  )
        33           Al  tau(  33) = (   0.0000000   0.0000000   3.0000000  )
        34           Al  tau(  34) = (   0.5000000   0.5000000   3.0000000  )
        35           Ga  tau(  35) = (   0.5000000   0.0000000   3.5000000  )
        36           Ga  tau(  36) = (   0.0000000   0.5000000   3.5000000  )
        37           Al  tau(  37) = (   0.0000000   0.0000000   4.0000000  )
        38           Al  tau(  38) = (   0.5000000   0.5000000   4.0000000  )
        39           Ga  tau(  39) = (   0.5000000   0.0000000   4.5000000  )
        40           Ga  tau(  40) = (   0.0000000   0.5000000   4.5000000  )

     number of k points=    31  Marzari-Vanderbilt smearing, width (Ry)=  0.0050
                       cart. coord. in units 2pi/alat
        k(    1) = (   0.5000000   0.5000000   0.1000000), wk =   0.0322581
        k(    2) = (   0.4500000   0.4500000   0.0900000), wk =   0.0322581
        k(    3) = (   0.4000000   0.4000000   0.0800000), wk =   0.0322581
        k(    4) = (   0.3500000   0.3500000   0.0700000), wk =   0.0322581
        k(    5) = (   0.3000000   0.3000000   0.0600000), wk =   0.0322581
        k(    6) = (   0.2500000   0.2500000   0.0500000), wk =   0.0322581
        k(    7) = (   0.2000000   0.2000000   0.0400000), wk =   0.0322581
        k(    8) = (   0.1500000   0.1500000   0.0300000), wk =   0.0322581
        k(    9) = (   0.1000000   0.1000000   0.0200000), wk =   0.0322581
        k(   10) = (   0.0500000   0.0500000   0.0100000), wk =   0.0322581
        k(   11) = (   0.0000000   0.0000000   0.0000000), wk =   0.0322581
        k(   12) = (   0.0500000   0.0000000   0.0100000), wk =   0.0322581
        k(   13) = (   0.1000000   0.0000000   0.0200000), wk =   0.0322581
        k(   14) = (   0.1500000   0.0000000   0.0300000), wk =   0.0322581
        k(   15) = (   0.2000000   0.0000000   0.0400000), wk =   0.0322581
        k(   16) = (   0.2500000   0.0000000   0.0500000), wk =   0.0322581
        k(   17) = (   0.3000000   0.0000000   0.0600000), wk =   0.0322581
        k(   18) = (   0.3500000   0.0000000   0.0700000), wk =   0.0322581
        k(   19) = (   0.4000000   0.0000000   0.0800000), wk =   0.0322581
        k(   20) = (   0.4500000   0.0000000   0.0900000), wk =   0.0322581
        k(   21) = (   0.5000000   0.0000000   0.1000000), wk =   0.0322581
        k(   22) = (   0.4500000   0.0000000   0.0900000), wk =   0.0322581
        k(   23) = (   0.4000000   0.0000000   0.0800000), wk =   0.0322581
        k(   24) = (   0.3500000   0.0000000   0.0700000), wk =   0.0322581
        k(   25) = (   0.3000000   0.0000000   0.0600000), wk =   0.0322581
        k(   26) = (   0.2500000   0.0000000   0.0500000), wk =   0.0322581
        k(   27) = (   0.2000000   0.0000000   0.0400000), wk =   0.0322581
        k(   28) = (   0.1500000   0.0000000   0.0300000), wk =   0.0322581
        k(   29) = (   0.1000000   0.0000000   0.0200000), wk =   0.0322581
        k(   30) = (   0.0500000   0.0000000   0.0100000), wk =   0.0322581
        k(   31) = (   0.0000000   0.0000000   0.0000000), wk =   0.0322581

     Dense  grid:   135927 G-vectors     FFT dimensions: (  40,  40, 192)

     Estimated max dynamical RAM per process >     383.82 MB

     Estimated total dynamical RAM >     767.64 MB

     Check: negative core charge=   -0.000009
     Generating pointlists ...
     new r_m :   0.1786 (alat units)  1.9107 (a.u.) for type    1
     new r_m :   0.1786 (alat units)  1.9107 (a.u.) for type    2
     new r_m :   0.1786 (alat units)  1.9107 (a.u.) for type    3

     The potential is recalculated from file :
     ./outputs/gaalas_sl.save/charge-density

     Starting wfcs are  210 randomized atomic wfcs
     Checking if some PAW data can be deallocated... 

     Band Structure Calculation
     Davidson diagonalization with overlap
     c_bands:  1 eigenvalues not converged
     c_bands:  1 eigenvalues not converged
     c_bands:  1 eigenvalues not converged
     c_bands:  1 eigenvalues not converged
     c_bands:  1 eigenvalues not converged

     ethr =  3.85E-11,  avg # of iterations = 61.6

     total cpu time spent up to now is     6682.8 secs

     End of band structure calculation

 ------ SPIN UP ------------


          k = 0.5000 0.5000 0.1000 ( 17008 PWs)   bands (ev):

    -8.9408  -8.9408  -8.9393  -8.9393  -8.9391  -8.9391  -8.9377  -8.9377
    -8.9374  -8.9374  -8.9112  -8.9112  -8.9107  -8.9107  -8.9106  -8.9106
    -8.9105  -8.9105  -8.9096  -8.9096  -8.8767  -8.8767  -8.8764  -8.8764
    -8.8760  -8.8760  -8.8758  -8.8758  -8.8756  -8.8756  -8.8325  -8.8325
    -8.8323  -8.8323  -8.8312  -8.8312  -8.8311  -8.8311  -8.8309  -8.8309
    -8.8309  -8.8309  -8.8309  -8.8309  -8.8308  -8.8308  -8.8299  -8.8299
    -8.8294  -8.8294  -5.1267  -5.1267  -5.1263  -5.1263  -5.0732  -5.0732
    -5.0730  -5.0730  -5.0388  -5.0388  -4.8864  -4.8864  -4.8860  -4.8860
    -4.8274  -4.8274  -4.8272  -4.8272  -4.7900  -4.7900  -0.6388  -0.6388
    -0.3895  -0.3895  -0.3893  -0.3893  -0.0083  -0.0083   0.1380   0.1380
     0.1384   0.1384   0.2779   0.2779   0.2781   0.2781   0.9535   0.9535
     0.9538   0.9538   2.9028   2.9028   2.9030   2.9030   2.9088   2.9088
     2.9091   2.9091   4.0136   4.0136   4.0137   4.0137   4.0555   4.0555
     4.0557   4.0557   4.7526   4.7526   4.7529   4.7529   4.7811   4.7811
     4.7813   4.7813   4.7829   4.7829   4.7969   4.7969   4.7973   4.7973
     4.7988   4.7988   4.8619   4.8619   4.8621   4.8621   4.9013   4.9013
     4.9027   4.9027   6.8876   6.8876   7.7687   7.7687   7.7688   7.7688
     7.9001   7.9001   8.5198   8.5198   8.5200   8.5200   8.6958   8.6958
     8.6962   8.6962   8.9883   8.9883   8.9886   8.9886  10.2560  10.2560
    10.2561  10.2561  10.2987  10.2987

          k = 0.4500 0.4500 0.0900 ( 16975 PWs)   bands (ev):

    -8.9405  -8.9404  -8.9395  -8.9392  -8.9392  -8.9389  -8.9375  -8.9375
    -8.9372  -8.9371  -8.9110  -8.9109  -8.9107  -8.9106  -8.9104  -8.9104
    -8.9103  -8.9100  -8.9098  -8.9093  -8.8765  -8.8763  -8.8763  -8.8762
    -8.8761  -8.8759  -8.8757  -8.8756  -8.8756  -8.8756  -8.8328  -8.8327
    -8.8323  -8.8322  -8.8316  -8.8312  -8.8312  -8.8311  -8.8311  -8.8310
    -8.8310  -8.8307  -8.8307  -8.8307  -8.8306  -8.8304  -8.8301  -8.8297
    -8.8296  -8.8293  -5.2605  -5.2543  -5.1585  -5.1455  -5.1122  -5.1088
    -5.0652  -5.0605  -5.0546  -5.0232  -4.8753  -4.8717  -4.8185  -4.8121
    -4.8107  -4.7849  -4.7821  -4.7779  -4.7722  -4.7718  -0.6290  -0.5780
    -0.4066  -0.3978  -0.3608  -0.3590   0.0074   0.0482   0.0635   0.1036
     0.1094   0.1519   0.2632   0.3172   0.3378   0.3976   0.9209   0.9840
     1.0474   1.1141   2.5819   2.6616   2.8648   2.8800   2.9506   2.9524
     3.2019   3.2859   3.6812   3.8093   3.8940   3.9554   4.0101   4.0656
     4.2865   4.3968   4.5596   4.5657   4.6393   4.6528   4.6551   4.6638
     4.6715   4.6777   4.6835   4.6883   4.6913   4.6960   4.7265   4.7622
     4.7626   4.7728   4.7767   4.8739   4.8792   4.8942   4.9481   4.9536
     4.9804   4.9817   6.9673   7.1047   7.6534   7.7707   7.8199   7.9352
     7.9689   8.0582   8.5270   8.5975   8.5996   8.6148   8.6523   8.6840
     8.8015   8.8555   8.9523   8.9781   9.1436   9.1551  10.1554  10.1630
    10.2498  10.2739  10.2775  10.3011

          k = 0.4000 0.4000 0.0800 ( 16955 PWs)   bands (ev):

    -8.9410  -8.9400  -8.9398  -8.9394  -8.9388  -8.9383  -8.9378  -8.9374
    -8.9370  -8.9366  -8.9112  -8.9111  -8.9110  -8.9109  -8.9102  -8.9090
    -8.9089  -8.9088  -8.9086  -8.9079  -8.8767  -8.8765  -8.8763  -8.8759
    -8.8757  -8.8756  -8.8755  -8.8751  -8.8751  -8.8750  -8.8337  -8.8336
    -8.8325  -8.8321  -8.8321  -8.8320  -8.8320  -8.8319  -8.8317  -8.8317
    -8.8308  -8.8308  -8.8306  -8.8303  -8.8300  -8.8300  -8.8298  -8.8298
    -8.8290  -8.8289  -5.4746  -5.4572  -5.3287  -5.2862  -5.1417  -5.0664
    -5.0597  -5.0168  -5.0053  -4.9774  -4.8689  -4.8397  -4.8325  -4.7860
    -4.7738  -4.7450  -4.7437  -4.7115  -4.6202  -4.6092  -0.6012  -0.4122
    -0.4046  -0.3459  -0.3256  -0.3032  -0.0419   0.0189   0.0533   0.0669
     0.1435   0.2138   0.2733   0.3768   0.5387   0.6781   0.8879   1.0027
     1.3173   1.4581   2.3320   2.4809   2.8463   2.8718   2.9903   2.9994
     3.3651   3.5386   3.6222   3.6663   3.7066   3.7658   3.8312   3.9361
     4.1935   4.2710   4.3453   4.3629   4.4032   4.4055   4.4134   4.4235
     4.4927   4.4942   4.5241   4.5390   4.5522   4.5567   4.5683   4.6035
     4.6699   4.7124   4.7312   4.7720   4.8080   4.8683   5.0243   5.0614
     5.1634   5.1760   7.1748   7.5091   7.5665   7.7097   7.9941   8.1547
     8.1752   8.4345   8.4559   8.5062   8.5849   8.6603   8.7943   8.8346
     8.9363   8.9485   8.9812   9.1482   9.5172   9.5657  10.0612  10.1057
    10.1200  10.1695  10.2100  10.2381

          k = 0.3500 0.3500 0.0700 ( 16943 PWs)   bands (ev):

    -8.9418  -8.9408  -8.9402  -8.9389  -8.9386  -8.9381  -8.9380  -8.9375
    -8.9363  -8.9359  -8.9126  -8.9123  -8.9122  -8.9121  -8.9116  -8.9061
    -8.9061  -8.9059  -8.9059  -8.9053  -8.8769  -8.8767  -8.8765  -8.8761
    -8.8760  -8.8740  -8.8739  -8.8736  -8.8734  -8.8733  -8.8351  -8.8350
    -8.8339  -8.8333  -8.8333  -8.8332  -8.8330  -8.8329  -8.8321  -8.8320
    -8.8317  -8.8316  -8.8304  -8.8299  -8.8289  -8.8288  -8.8286  -8.8286
    -8.8285  -8.8277  -5.6921  -5.6608  -5.5220  -5.4403  -5.2568  -4.9908
    -4.9812  -4.9490  -4.9443  -4.9275  -4.9036  -4.7813  -4.7710  -4.7524
    -4.7319  -4.7141  -4.6889  -4.6622  -4.5070  -4.4719  -0.5610  -0.4101
    -0.2943  -0.2065  -0.2045  -0.1419  -0.1056  -0.0548   0.0063   0.1011
     0.1261   0.3060   0.4487   0.4784   0.8361   0.8513   0.9951   1.0733
     1.6792   1.8936   2.1893   2.3812   2.8526   2.8874   3.0002   3.0203
     3.1055   3.3527   3.4819   3.4856   3.4857   3.6392   3.6594   3.8151
     3.9047   4.0759   4.1007   4.1301   4.1355   4.1385   4.1511   4.1710
     4.2929   4.3151   4.3527   4.3607   4.3799   4.4015   4.4566   4.5196
     4.5959   4.6157   4.7313   4.8173   4.8310   4.9848   5.0581   5.1534
     5.3163   5.3526   7.4512   7.4560   7.6567   8.0561   8.1255   8.2514
     8.2636   8.3179   8.4085   8.6192   8.6199   8.6584   8.8128   8.8561
     8.8607   8.8767   8.9583   9.1254   9.3586   9.5547  10.0519  10.0830
    10.1453  10.3051  10.3090  10.3207

          k = 0.3000 0.3000 0.0600 ( 16962 PWs)   bands (ev):

    -8.9436  -8.9428  -8.9418  -8.9404  -8.9396  -8.9379  -8.9371  -8.9364
    -8.9352  -8.9349  -8.9152  -8.9150  -8.9147  -8.9145  -8.9142  -8.9022
    -8.9021  -8.9018  -8.9018  -8.9015  -8.8772  -8.8770  -8.8767  -8.8764
    -8.8763  -8.8709  -8.8709  -8.8707  -8.8706  -8.8702  -8.8368  -8.8367
    -8.8356  -8.8351  -8.8351  -8.8350  -8.8349  -8.8347  -8.8339  -8.8337
    -8.8312  -8.8310  -8.8299  -8.8295  -8.8281  -8.8273  -8.8272  -8.8271
    -8.8271  -8.8262  -5.8966  -5.8501  -5.7154  -5.5901  -5.3947  -5.0377
    -4.8891  -4.8766  -4.8462  -4.8250  -4.8054  -4.8050  -4.7034  -4.6903
    -4.6591  -4.6391  -4.6372  -4.6171  -4.4437  -4.3717  -0.5182  -0.4090
    -0.2830  -0.1139  -0.1099  -0.0801  -0.0700   0.0119   0.0141   0.1782
     0.2190   0.3552   0.5185   0.8023   0.8271   0.9440   1.1997   1.5483
     2.0745   2.0946   2.4003   2.4659   2.8877   2.9265   2.9279   2.9490
     2.9863   3.0224   3.0869   3.1573   3.1668   3.2684   3.3572   3.3969
     3.7780   3.8232   3.9137   3.9168   3.9473   3.9964   4.1233   4.1389
     4.1531   4.1738   4.2373   4.2731   4.2883   4.2943   4.3163   4.3607
     4.4988   4.5988   4.6576   4.7881   5.0509   5.0618   5.1067   5.2274
     5.4318   5.5065   7.5493   7.6484   7.7640   8.0674   8.1228   8.1407
     8.1926   8.4082   8.4713   8.4726   8.5032   8.6114   8.6434   8.7446
     8.7446   8.7532   8.8474   8.8852   9.0832   9.2064   9.7165  10.0282
    10.1289  10.2364  10.2463  10.3400

          k = 0.2500 0.2500 0.0500 ( 16967 PWs)   bands (ev):

    -8.9462  -8.9453  -8.9441  -8.9429  -8.9419  -8.9366  -8.9361  -8.9353
    -8.9343  -8.9338  -8.9188  -8.9185  -8.9182  -8.9179  -8.9176  -8.8972
    -8.8971  -8.8967  -8.8966  -8.8965  -8.8775  -8.8772  -8.8770  -8.8766
    -8.8765  -8.8668  -8.8667  -8.8667  -8.8666  -8.8660  -8.8387  -8.8386
    -8.8375  -8.8372  -8.8371  -8.8370  -8.8368  -8.8365  -8.8358  -8.8356
    -8.8305  -8.8303  -8.8293  -8.8288  -8.8274  -8.8259  -8.8259  -8.8257
    -8.8256  -8.8248  -6.0797  -6.0172  -5.8959  -5.7250  -5.5390  -5.1230
    -4.8884  -4.7664  -4.7518  -4.7278  -4.7033  -4.6875  -4.6355  -4.6112
    -4.5966  -4.5727  -4.5482  -4.5326  -4.4274  -4.3084  -0.4879  -0.4210
    -0.3111  -0.1994  -0.1586  -0.1298  -0.0813   0.0711   0.2887   0.3204
     0.4106   0.5201   0.5645   0.7299   0.8390   1.2410   1.6072   2.0751
     2.1851   2.3532   2.6821   2.7280   2.7355   2.7522   2.8457   2.8570
     2.8877   2.9009   2.9169   2.9497   2.9534   2.9917   3.0340   3.3780
     3.5570   3.6147   3.7772   3.7908   3.7972   3.8437   3.9661   3.9742
     3.9803   4.0007   4.0527   4.0701   4.0792   4.0802   4.1601   4.3747
     4.6012   4.6734   4.7464   5.0125   5.0183   5.0982   5.2657   5.2857
     5.5075   5.6343   7.6924   7.7879   7.8913   7.9394   7.9749   8.0169
     8.0523   8.2750   8.3082   8.3291   8.3682   8.4701   8.5085   8.5836
     8.6046   8.6194   8.7751   8.7753   8.8397   9.1758   9.4062   9.8258
     9.8732  10.1301  10.1359  10.1525

          k = 0.2000 0.2000 0.0400 ( 17009 PWs)   bands (ev):

    -8.9489  -8.9483  -8.9469  -8.9459  -8.9448  -8.9355  -8.9351  -8.9341
    -8.9334  -8.9329  -8.9229  -8.9226  -8.9221  -8.9217  -8.9215  -8.8917
    -8.8916  -8.8912  -8.8911  -8.8911  -8.8777  -8.8775  -8.8773  -8.8769
    -8.8768  -8.8623  -8.8623  -8.8622  -8.8621  -8.8613  -8.8406  -8.8405
    -8.8394  -8.8390  -8.8389  -8.8388  -8.8387  -8.8384  -8.8377  -8.8375
    -8.8299  -8.8297  -8.8287  -8.8282  -8.8268  -8.8248  -8.8247  -8.8245
    -8.8245  -8.8236  -6.2357  -6.1571  -6.0549  -5.8382  -5.6764  -5.1964
    -4.9852  -4.6417  -4.6312  -4.6152  -4.5975  -4.5711  -4.5597  -4.5126
    -4.4971  -4.4800  -4.4543  -4.4463  -4.4431  -4.2752  -0.4874  -0.4582
    -0.3919  -0.3504  -0.3149  -0.2098  -0.0300   0.1824   0.4121   0.4574
     0.5627   0.5798   0.6300   0.6879   0.8439   1.6960   2.0345   2.3862
     2.4301   2.4615   2.5701   2.5926   2.6049   2.6332   2.6406   2.7106
     2.7530   2.8215   2.9444   3.0462   3.0739   3.1541   3.4240   3.4326
     3.4850   3.6324   3.6523   3.7115   3.7171   3.7199   3.7714   3.7931
     3.8046   3.8093   3.8173   3.8185   3.8282   3.8678   4.0669   4.2543
     4.5721   4.7116   4.9537   5.0107   5.0397   5.3323   5.3649   5.4138
     5.5467   5.7345   7.7292   7.7535   7.7547   7.7735   7.8421   7.9423
     8.0363   8.1614   8.1930   8.1995   8.2433   8.2727   8.3171   8.4209
     8.4280   8.6037   8.6380   8.8143   8.9095   8.9844   9.3408   9.4439
     9.4962   9.7506   9.9267   9.9412

          k = 0.1500 0.1500 0.0300 ( 17005 PWs)   bands (ev):

    -8.9518  -8.9513  -8.9496  -8.9487  -8.9476  -8.9345  -8.9340  -8.9332
    -8.9325  -8.9317  -8.9269  -8.9265  -8.9259  -8.9255  -8.9249  -8.8866
    -8.8864  -8.8861  -8.8859  -8.8857  -8.8780  -8.8778  -8.8776  -8.8772
    -8.8769  -8.8580  -8.8579  -8.8579  -8.8577  -8.8569  -8.8422  -8.8420
    -8.8410  -8.8405  -8.8405  -8.8403  -8.8401  -8.8401  -8.8392  -8.8392
    -8.8291  -8.8291  -8.8280  -8.8275  -8.8261  -8.8236  -8.8235  -8.8233
    -8.8232  -8.8224  -6.3605  -6.2660  -6.1867  -5.9251  -5.7970  -5.2521
    -5.0813  -4.6487  -4.4950  -4.4856  -4.4790  -4.4673  -4.4403  -4.4328
    -4.4164  -4.4012  -4.3901  -4.3642  -4.3571  -4.2624  -0.5264  -0.5237
    -0.5180  -0.5176  -0.5170  -0.2618   0.0248   0.2408   0.4716   0.4807
     0.5054   0.5123   0.5185   0.8500   1.1079   2.1587   2.2661   2.3148
     2.4443   2.4508   2.4767   2.5594   2.6651   2.6741   2.7200   2.7985
     2.8454   2.9659   3.1551   3.1662   3.3316   3.3648   3.4197   3.4547
     3.5009   3.5040   3.5167   3.5427   3.5573   3.6166   3.6188   3.6194
     3.6231   3.6322   3.6540   3.7063   3.8326   3.9971   4.1461   4.3000
     4.5765   4.6886   4.8859   4.9001   5.3625   5.3722   5.5007   5.5553
     5.5861   5.8096   7.5886   7.6228   7.6267   7.6516   7.7344   7.7797
     7.8430   7.9801   8.0884   8.1487   8.1569   8.1591   8.1906   8.2364
     8.2855   8.6682   8.7599   8.8346   8.9364   9.0335   9.0678   9.0726
     9.1597   9.2086   9.3295   9.5418

          k = 0.1000 0.1000 0.0200 ( 16990 PWs)   bands (ev):

    -8.9541  -8.9537  -8.9518  -8.9511  -8.9499  -8.9338  -8.9333  -8.9323
    -8.9317  -8.9311  -8.9302  -8.9298  -8.9291  -8.9286  -8.9277  -8.8822
    -8.8819  -8.8817  -8.8813  -8.8813  -8.8782  -8.8779  -8.8778  -8.8774
    -8.8770  -8.8545  -8.8544  -8.8543  -8.8542  -8.8534  -8.8435  -8.8432
    -8.8422  -8.8418  -8.8417  -8.8417  -8.8416  -8.8415  -8.8406  -8.8404
    -8.8284  -8.8284  -8.8273  -8.8269  -8.8255  -8.8225  -8.8224  -8.8223
    -8.8221  -8.8213  -6.4515  -6.3415  -6.2874  -5.9824  -5.8941  -5.2852
    -5.1660  -4.6490  -4.5330  -4.3747  -4.3595  -4.3530  -4.3350  -4.3269
    -4.3228  -4.3199  -4.3137  -4.2888  -4.2850  -4.2605  -0.7026  -0.6708
    -0.6571  -0.6030  -0.5941  -0.3070   0.0774   0.2482   0.3648   0.4012
     0.4167   0.4774   0.4872   1.0721   1.2793   2.2434   2.2893   2.4029
     2.4407   2.5841   2.6385   2.7397   2.7585   2.8095   2.8444   2.9929
     3.1492   3.1494   3.1909   3.2098   3.2237   3.2491   3.2542   3.2600
     3.3521   3.3952   3.4201   3.4324   3.4507   3.4598   3.4821   3.5528
     3.6122   3.7240   3.8698   3.8704   3.9537   4.0567   4.1251   4.6150
     4.6807   4.8071   4.8196   4.9556   5.4093   5.5273   5.5424   5.6135
     5.6463   5.8604   7.4049   7.4543   7.5315   7.5648   7.5967   7.6115
     7.7663   7.7992   7.8011   7.9283   7.9534   8.0492   8.1271   8.1643
     8.3404   8.5013   8.6268   8.6650   8.6898   8.7592   8.7910   8.8383
     8.9882   8.9925   9.2254   9.2751

          k = 0.0500 0.0500 0.0100 ( 17031 PWs)   bands (ev):

    -8.9557  -8.9555  -8.9534  -8.9528  -8.9514  -8.9333  -8.9329  -8.9322
    -8.9319  -8.9316  -8.9312  -8.9309  -8.9308  -8.9305  -8.9298  -8.8794
    -8.8792  -8.8790  -8.8786  -8.8785  -8.8784  -8.8781  -8.8780  -8.8775
    -8.8774  -8.8524  -8.8523  -8.8521  -8.8519  -8.8512  -8.8444  -8.8441
    -8.8431  -8.8428  -8.8428  -8.8426  -8.8425  -8.8424  -8.8416  -8.8412
    -8.8281  -8.8281  -8.8270  -8.8265  -8.8251  -8.8219  -8.8219  -8.8218
    -8.8217  -8.8208  -6.5067  -6.3817  -6.3544  -6.0083  -5.9633  -5.2934
    -5.2324  -4.6384  -4.5783  -4.2907  -4.2801  -4.2759  -4.2730  -4.2649
    -4.2623  -4.2621  -4.2485  -4.2464  -4.2382  -4.2366  -0.8331  -0.7781
    -0.7672  -0.6672  -0.6595  -0.3374   0.1284   0.2213   0.2585   0.3245
     0.3378   0.4632   0.4734   1.2327   1.3483   2.3319   2.3599   2.4965
     2.5207   2.7961   2.8572   2.8834   2.8968   2.9056   2.9118   2.9391
     2.9492   2.9618   3.0402   3.2229   3.2574   3.2596   3.2679   3.3010
     3.3188   3.3361   3.3580   3.3810   3.3910   3.4054   3.4375   3.5184
     3.5486   3.8747   3.9330   3.9378   3.9904   4.3480   4.4936   4.6713
     4.6901   4.7514   4.7616   5.4459   5.4986   5.5155   5.5629   5.5717
     5.7686   5.8883   7.1464   7.2974   7.3714   7.3855   7.4027   7.4802
     7.5233   7.7679   7.7861   7.8149   7.9067   7.9753   8.0989   8.1374
     8.1398   8.2301   8.3504   8.4330   8.5049   8.5187   8.5807   8.6114
     8.6466   9.0310   9.0756   9.1154

          k = 0.0000 0.0000 0.0000 ( 17017 PWs)   bands (ev):

    -8.9562  -8.9559  -8.9539  -8.9534  -8.9518  -8.9331  -8.9331  -8.9328
    -8.9328  -8.9315  -8.9315  -8.9311  -8.9311  -8.9306  -8.9306  -8.8783
    -8.8783  -8.8782  -8.8782  -8.8778  -8.8778  -8.8775  -8.8775  -8.8774
    -8.8774  -8.8516  -8.8515  -8.8514  -8.8513  -8.8504  -8.8447  -8.8444
    -8.8434  -8.8431  -8.8429  -8.8429  -8.8428  -8.8427  -8.8419  -8.8415
    -8.8280  -8.8279  -8.8269  -8.8259  -8.8247  -8.8219  -8.8219  -8.8216
    -8.8212  -8.8205  -6.5253  -6.3862  -6.3860  -6.0019  -6.0017  -5.2756
    -5.2754  -4.6147  -4.6145  -4.2634  -4.2605  -4.2605  -4.2448  -4.2448
    -4.2446  -4.2446  -4.2201  -4.2201  -4.2197  -4.2197  -0.8804  -0.8130
    -0.8127  -0.6892  -0.6889  -0.3482   0.1777   0.1778   0.2205   0.3019
     0.3021   0.4596   0.4599   1.3274   1.3276   2.4298   2.4301   2.6510
     2.6514   2.7462   2.7462   2.7466   2.7466   2.9502   2.9504   3.0787
     3.0789   3.0942   3.0942   3.0943   3.0943   3.0972   3.0973   3.3424
     3.3623   3.3623   3.3638   3.3638   3.3933   3.5169   3.5169   3.5171
     3.5171   3.9502   3.9502   3.9504   3.9504   4.6078   4.6079   4.7183
     4.7183   4.7185   4.7185   5.4817   5.4817   5.4819   5.4819   5.8161
     5.8977   5.8977   6.8917   7.2945   7.2946   7.3180   7.3233   7.3233
     7.4369   7.6951   7.6953   8.0183   8.0541   8.0541   8.0543   8.0543
     8.1282   8.1282   8.1341   8.1342   8.3659   8.5133   8.5134   8.5498
     8.5500   9.0075   9.0075   9.0339

          k = 0.0500 0.0000 0.0100 ( 17038 PWs)   bands (ev):

    -8.9560  -8.9557  -8.9535  -8.9530  -8.9516  -8.9331  -8.9329  -8.9327
    -8.9325  -8.9316  -8.9313  -8.9311  -8.9308  -8.9306  -8.9304  -8.8787
    -8.8786  -8.8784  -8.8783  -8.8782  -8.8780  -8.8780  -8.8778  -8.8775
    -8.8775  -8.8522  -8.8521  -8.8518  -8.8516  -8.8508  -8.8445  -8.8442
    -8.8432  -8.8430  -8.8429  -8.8427  -8.8427  -8.8427  -8.8418  -8.8413
    -8.8281  -8.8280  -8.8269  -8.8263  -8.8250  -8.8220  -8.8218  -8.8217
    -8.8215  -8.8207  -6.5158  -6.3906  -6.3632  -6.0164  -5.9713  -5.2997
    -5.2383  -4.6417  -4.5813  -4.2869  -4.2699  -4.2667  -4.2632  -4.2594
    -4.2468  -4.2445  -4.2376  -4.2353  -4.2268  -4.2258  -0.8566  -0.7983
    -0.7867  -0.6800  -0.6716  -0.3420   0.1298   0.2240   0.2400   0.3100
     0.3241   0.4590   0.4700   1.2503   1.3678   2.3608   2.3886   2.5462
     2.5757   2.8039   2.8172   2.8199   2.8758   2.8763   2.9023   2.9620
     3.0056   3.0604   3.0944   3.1020   3.1411   3.2361   3.2719   3.3196
     3.3380   3.3428   3.3433   3.3727   3.3945   3.4709   3.4913   3.5006
     3.5231   3.8902   3.9381   3.9430   3.9936   4.4369   4.5881   4.6457
     4.7160   4.7180   4.7915   5.4126   5.4840   5.5061   5.5777   5.7222
     5.8024   5.8657   7.0454   7.2794   7.3303   7.3617   7.3734   7.4134
     7.4827   7.7229   7.7697   7.8376   7.9612   7.9984   8.0781   8.1122
     8.1320   8.2020   8.2361   8.3849   8.4000   8.5063   8.5334   8.6010
     8.6107   8.9959   9.0271   9.0819

          k = 0.1000 0.0000 0.0200 ( 17002 PWs)   bands (ev):

    -8.9551  -8.9548  -8.9529  -8.9521  -8.9508  -8.9330  -8.9327  -8.9320
    -8.9317  -8.9315  -8.9313  -8.9305  -8.9303  -8.9300  -8.9295  -8.8801
    -8.8799  -8.8796  -8.8792  -8.8791  -8.8786  -8.8783  -8.8781  -8.8777
    -8.8774  -8.8531  -8.8531  -8.8528  -8.8525  -8.8518  -8.8441  -8.8438
    -8.8428  -8.8424  -8.8423  -8.8423  -8.8422  -8.8422  -8.8413  -8.8409
    -8.8282  -8.8281  -8.8271  -8.8266  -8.8252  -8.8220  -8.8220  -8.8219
    -8.8218  -8.8209  -6.4875  -6.3767  -6.3222  -6.0146  -5.9253  -5.3098
    -5.1888  -4.6622  -4.5433  -4.3623  -4.3411  -4.3316  -4.2893  -4.2803
    -4.2629  -4.2556  -4.2498  -4.2476  -4.2461  -4.2446  -0.7905  -0.7451
    -0.7252  -0.6438  -0.6299  -0.3242   0.0831   0.2642   0.2998   0.3514
     0.3744   0.4710   0.4880   1.1438   1.3668   2.2548   2.2906   2.4518
     2.5273   2.6180   2.7357   2.7717   2.9516   2.9663   2.9733   3.0183
     3.0742   3.0933   3.1327   3.1559   3.2208   3.2211   3.2645   3.2865
     3.3126   3.3691   3.3912   3.4020   3.4132   3.4254   3.4311   3.4440
     3.5155   3.7690   3.8738   3.9435   4.0693   4.1479   4.4280   4.5079
     4.6535   4.7643   4.9303   5.2797   5.3757   5.4236   5.5892   5.7157
     5.7313   5.7754   7.2791   7.3572   7.4642   7.5024   7.5232   7.5794
     7.6195   7.6613   7.8475   7.8645   7.9397   7.9667   8.1371   8.2323
     8.2508   8.3230   8.3628   8.5061   8.5340   8.6548   8.6584   8.6903
     8.7857   9.0499   9.0686   9.1273

          k = 0.1500 0.0000 0.0300 ( 16984 PWs)   bands (ev):

    -8.9538  -8.9533  -8.9517  -8.9508  -8.9497  -8.9331  -8.9327  -8.9319
    -8.9314  -8.9305  -8.9303  -8.9301  -8.9294  -8.9287  -8.9281  -8.8820
    -8.8819  -8.8815  -8.8813  -8.8811  -8.8788  -8.8786  -8.8783  -8.8779
    -8.8779  -8.8546  -8.8546  -8.8545  -8.8543  -8.8535  -8.8434  -8.8431
    -8.8421  -8.8416  -8.8416  -8.8416  -8.8415  -8.8414  -8.8405  -8.8402
    -8.8285  -8.8285  -8.8274  -8.8270  -8.8256  -8.8227  -8.8225  -8.8224
    -8.8223  -8.8214  -6.4406  -6.3444  -6.2635  -5.9962  -5.8647  -5.3055
    -5.1280  -4.6750  -4.5021  -4.4784  -4.4518  -4.4313  -4.3732  -4.3502
    -4.2827  -4.2713  -4.2627  -4.2552  -4.2526  -4.2506  -0.6954  -0.6625
    -0.6386  -0.5825  -0.5668  -0.2964   0.0405   0.2948   0.4025   0.4308
     0.4514   0.4997   0.5131   1.0164   1.3240   2.1719   2.1939   2.3886
     2.4310   2.5276   2.5412   2.6014   2.8801   2.9624   3.0728   3.1461
     3.1509   3.1536   3.1536   3.2048   3.2265   3.2483   3.2657   3.2948
     3.3031   3.3214   3.3782   3.3806   3.4494   3.4526   3.4991   3.5349
     3.5380   3.6009   3.7561   3.8226   3.9526   4.1706   4.2036   4.3208
     4.5391   4.8370   4.9717   5.0960   5.1047   5.3146   5.6177   5.6378
     5.6595   5.7840   7.3123   7.5847   7.6772   7.6843   7.6991   7.7616
     7.8120   7.8224   7.8445   7.9639   8.0495   8.1849   8.2093   8.3547
     8.4625   8.4786   8.5155   8.6782   8.6872   8.7361   8.8395   8.8741
     8.8895   9.0198   9.1732   9.2476

          k = 0.2000 0.0000 0.0400 ( 16994 PWs)   bands (ev):

    -8.9521  -8.9514  -8.9500  -8.9491  -8.9480  -8.9332  -8.9327  -8.9320
    -8.9314  -8.9307  -8.9285  -8.9280  -8.9275  -8.9269  -8.9263  -8.8847
    -8.8846  -8.8842  -8.8840  -8.8838  -8.8790  -8.8787  -8.8785  -8.8781
    -8.8781  -8.8570  -8.8570  -8.8569  -8.8569  -8.8560  -8.8426  -8.8422
    -8.8412  -8.8408  -8.8407  -8.8407  -8.8405  -8.8404  -8.8396  -8.8394
    -8.8292  -8.8291  -8.8280  -8.8276  -8.8262  -8.8234  -8.8233  -8.8232
    -8.8232  -8.8223  -6.3754  -6.2939  -6.1876  -5.9612  -5.7905  -5.2867
    -5.0579  -4.6799  -4.6238  -4.5934  -4.5559  -4.4851  -4.4594  -4.4397
    -4.3356  -4.3049  -4.2689  -4.2619  -4.2549  -4.2453  -0.5877  -0.5641
    -0.5383  -0.5005  -0.4850  -0.2612   0.0034   0.3118   0.5466   0.5499
     0.5510   0.5529   0.5534   0.8762   1.2430   2.1184   2.1297   2.2739
     2.2948   2.3540   2.4839   2.5678   2.7062   2.9022   2.9713   3.0187
     3.0604   3.1132   3.1471   3.2080   3.2376   3.3001   3.3485   3.3780
     3.3870   3.4020   3.4030   3.4377   3.5093   3.5166   3.5286   3.5680
     3.5775   3.6067   3.6231   3.6678   3.9493   3.9598   4.0923   4.3010
     4.3923   4.5521   4.8769   4.9107   5.1729   5.2743   5.4498   5.4877
     5.6825   5.7340   7.3751   7.6140   7.8152   7.8880   7.9723   8.0000
     8.0411   8.0464   8.1161   8.1487   8.2969   8.3694   8.4653   8.4738
     8.5001   8.5958   8.6141   8.8446   8.9258   8.9527   9.0854   9.0895
     9.1048   9.1067   9.1613   9.3716

          k = 0.2500 0.0000 0.0500 ( 16993 PWs)   bands (ev):

    -8.9499  -8.9492  -8.9479  -8.9469  -8.9460  -8.9335  -8.9329  -8.9322
    -8.9314  -8.9310  -8.9260  -8.9255  -8.9251  -8.9245  -8.9241  -8.8878
    -8.8878  -8.8874  -8.8872  -8.8870  -8.8790  -8.8789  -8.8785  -8.8783
    -8.8783  -8.8599  -8.8598  -8.8598  -8.8597  -8.8589  -8.8416  -8.8413
    -8.8403  -8.8397  -8.8396  -8.8395  -8.8393  -8.8392  -8.8384  -8.8384
    -8.8300  -8.8299  -8.8288  -8.8284  -8.8270  -8.8244  -8.8242  -8.8241
    -8.8241  -8.8232  -6.2923  -6.2255  -6.0952  -5.9098  -5.7041  -5.2532
    -4.9799  -4.7879  -4.7562  -4.6968  -4.6769  -4.6195  -4.5435  -4.4165
    -4.4043  -4.3436  -4.2907  -4.2612  -4.2563  -4.2398  -0.4812  -0.4631
    -0.4338  -0.4044  -0.3862  -0.2224  -0.0273   0.3123   0.5910   0.6266
     0.6777   0.7214   0.7304   0.7453   1.1300   2.0490   2.0703   2.1312
     2.1566   2.3465   2.3877   2.5130   2.6429   2.7301   2.8729   2.8864
     2.9586   3.0001   3.0253   3.1109   3.1471   3.1910   3.2166   3.3418
     3.4403   3.5301   3.5444   3.5628   3.5684   3.5729   3.5828   3.6045
     3.6483   3.6791   3.7685   3.7744   3.8367   3.8537   3.9641   4.1312
     4.2284   4.4358   4.6365   4.9709   5.0108   5.2494   5.3220   5.4003
     5.5804   5.6462   7.4652   7.7168   7.8783   8.1055   8.1275   8.2786
     8.3010   8.3296   8.3843   8.4377   8.4986   8.5270   8.6293   8.6673
     8.7326   8.7499   8.8326   8.9475   9.1396   9.1757   9.2441   9.2444
     9.3097   9.3187   9.4158   9.4628

          k = 0.3000 0.0000 0.0600 ( 17010 PWs)   bands (ev):

    -8.9476  -8.9468  -8.9458  -8.9445  -8.9439  -8.9340  -8.9334  -8.9327
    -8.9318  -8.9313  -8.9230  -8.9226  -8.9224  -8.9218  -8.9215  -8.8915
    -8.8914  -8.8911  -8.8908  -8.8907  -8.8790  -8.8788  -8.8785  -8.8783
    -8.8783  -8.8630  -8.8630  -8.8629  -8.8629  -8.8621  -8.8405  -8.8403
    -8.8392  -8.8386  -8.8382  -8.8381  -8.8380  -8.8380  -8.8373  -8.8371
    -8.8309  -8.8308  -8.8297  -8.8294  -8.8279  -8.8255  -8.8254  -8.8252
    -8.8251  -8.8243  -6.1921  -6.1398  -5.9872  -5.8424  -5.6068  -5.2053
    -4.9619  -4.9316  -4.8963  -4.8463  -4.7703  -4.6662  -4.6570  -4.4870
    -4.3857  -4.3753  -4.3226  -4.2604  -4.2573  -4.2356  -0.3844  -0.3694
    -0.3309  -0.3018  -0.2716  -0.1846  -0.0520   0.2948   0.5847   0.6491
     0.7345   0.8207   0.9361   0.9804   0.9920   1.8133   2.0516   2.0850
     2.1747   2.3111   2.3160   2.3654   2.5731   2.6964   2.7182   2.7277
     2.7492   2.8648   2.9530   2.9770   3.0485   3.0895   3.1315   3.2682
     3.4019   3.4128   3.5011   3.6031   3.6078   3.6721   3.7142   3.7146
     3.7150   3.7457   3.8016   3.8556   3.9206   3.9641   3.9978   4.0080
     4.0604   4.3866   4.5710   4.8388   5.0070   5.0348   5.1423   5.3625
     5.4483   5.5514   7.5810   7.8299   8.0016   8.1979   8.3194   8.3853
     8.5674   8.6226   8.6598   8.6644   8.7799   8.8353   8.8555   8.8869
     8.9014   8.9022   8.9730   9.0815   9.1587   9.3150   9.3379   9.5224
     9.5297   9.5772   9.6180   9.6468

          k = 0.3500 0.0000 0.0700 ( 16999 PWs)   bands (ev):

    -8.9453  -8.9442  -8.9435  -8.9419  -8.9414  -8.9347  -8.9340  -8.9334
    -8.9322  -8.9318  -8.9197  -8.9193  -8.9191  -8.9186  -8.9185  -8.8955
    -8.8954  -8.8950  -8.8948  -8.8946  -8.8785  -8.8784  -8.8780  -8.8779
    -8.8778  -8.8662  -8.8661  -8.8661  -8.8661  -8.8653  -8.8393  -8.8391
    -8.8380  -8.8374  -8.8366  -8.8365  -8.8364  -8.8364  -8.8361  -8.8355
    -8.8319  -8.8317  -8.8307  -8.8302  -8.8288  -8.8268  -8.8268  -8.8267
    -8.8266  -8.8257  -6.0755  -6.0373  -5.8647  -5.7595  -5.5007  -5.1435
    -5.1387  -5.1126  -4.9981  -4.9313  -4.8095  -4.7767  -4.6480  -4.5807
    -4.4295  -4.3650  -4.3377  -4.2593  -4.2577  -4.2341  -0.3013  -0.2882
    -0.2310  -0.1991  -0.1531  -0.1419  -0.0724   0.2602   0.4437   0.7236
     0.8359   0.8773   0.9786   1.1927   1.2477   1.5937   2.0621   2.0629
     2.1068   2.2563   2.2712   2.3841   2.4105   2.4442   2.5670   2.5925
     2.6826   2.7705   2.8840   2.9043   3.0164   3.0405   3.0987   3.1164
     3.1549   3.3096   3.3120   3.3658   3.6318   3.6720   3.7765   3.8472
     3.8697   3.8797   3.9111   3.9778   3.9799   4.0398   4.0934   4.1361
     4.1830   4.2443   4.6644   4.6884   4.8147   4.9557   5.0128   5.1148
     5.3984   5.4075   7.7210   7.9305   8.1822   8.2373   8.6224   8.6499
     8.6894   8.7459   8.7526   8.7646   8.8106   8.8841   9.0660   9.1228
     9.1442   9.1583   9.1947   9.3263   9.3299   9.3817   9.5525   9.5531
     9.6599   9.6827   9.7206   9.9190

          k = 0.4000 0.0000 0.0800 ( 17004 PWs)   bands (ev):

    -8.9429  -8.9417  -8.9412  -8.9396  -8.9391  -8.9358  -8.9347  -8.9343
    -8.9330  -8.9326  -8.9160  -8.9157  -8.9155  -8.9150  -8.9149  -8.8997
    -8.8996  -8.8993  -8.8989  -8.8989  -8.8777  -8.8776  -8.8772  -8.8772
    -8.8770  -8.8693  -8.8692  -8.8691  -8.8691  -8.8685  -8.8380  -8.8379
    -8.8368  -8.8363  -8.8351  -8.8350  -8.8349  -8.8349  -8.8348  -8.8339
    -8.8331  -8.8329  -8.8319  -8.8314  -8.8300  -8.8283  -8.8283  -8.8282
    -8.8281  -8.8272  -5.9436  -5.9190  -5.7292  -5.6618  -5.3874  -5.3129
    -5.2936  -5.1476  -5.0971  -5.0686  -4.8996  -4.7219  -4.6816  -4.6230
    -4.4732  -4.4185  -4.3050  -4.2586  -4.2578  -4.2365  -0.2332  -0.2220
    -0.1328  -0.1327  -0.1010  -0.0913   0.0017   0.2101   0.3105   0.6684
     0.8164   1.0561   1.1480   1.3947   1.4849   1.5379   1.9040   2.0751
     2.0871   2.1033   2.2547   2.3536   2.3702   2.4422   2.4742   2.4819
     2.5238   2.5790   2.7659   2.8493   2.9372   2.9546   3.0047   3.0446
     3.0487   3.1340   3.1887   3.2033   3.7201   3.7595   3.7956   3.8943
     3.8951   3.9468   3.9767   4.0039   4.0351   4.1025   4.2372   4.2961
     4.4082   4.4747   4.4930   4.5944   4.7656   4.7668   4.8611   4.9853
     5.2251   5.2553   7.8841   8.0315   8.3930   8.4076   8.5575   8.6731
     8.6940   8.7858   8.8711   8.9080   8.9240   8.9266   9.1706   9.2967
     9.2977   9.3063   9.4334   9.4735   9.5300   9.6056   9.7364   9.7897
     9.7922   9.8219   9.8387   9.9178

          k = 0.4500 0.0000 0.0900 ( 16990 PWs)   bands (ev):

    -8.9406  -8.9394  -8.9392  -8.9374  -8.9371  -8.9370  -8.9358  -8.9357
    -8.9341  -8.9337  -8.9121  -8.9118  -8.9116  -8.9112  -8.9112  -8.9038
    -8.9038  -8.9034  -8.9031  -8.9030  -8.8763  -8.8763  -8.8759  -8.8759
    -8.8757  -8.8721  -8.8720  -8.8718  -8.8717  -8.8713  -8.8368  -8.8366
    -8.8356  -8.8350  -8.8342  -8.8342  -8.8337  -8.8333  -8.8332  -8.8332
    -8.8332  -8.8328  -8.8324  -8.8322  -8.8311  -8.8300  -8.8299  -8.8298
    -8.8297  -8.8288  -5.7976  -5.7858  -5.5823  -5.5503  -5.4807  -5.4703
    -5.2913  -5.2689  -5.2633  -5.0236  -4.9820  -4.7850  -4.6365  -4.5919
    -4.5157  -4.4825  -4.2782  -4.2582  -4.2579  -4.2441  -0.1802  -0.1725
    -0.1280  -0.1127  -0.0326  -0.0099   0.1470   0.1579   0.1869   0.4956
     0.9290   1.2177   1.2689   1.3263   1.7052   1.7826   1.8062   1.8419
     2.1569   2.1717   2.2676   2.3077   2.3505   2.3770   2.3843   2.4088
     2.4675   2.5068   2.5167   2.5841   2.7870   2.9196   2.9284   2.9852
     3.0044   3.0747   3.2279   3.3085   3.5688   3.6500   3.8730   3.9662
     3.9766   3.9770   4.0275   4.0593   4.1850   4.2090   4.3278   4.3786
     4.5106   4.5431   4.5762   4.5886   4.6170   4.6763   4.7823   4.9240
     5.0149   5.0413   8.0680   8.1433   8.4094   8.4835   8.6233   8.6322
     8.6563   8.6822   8.9610   8.9949   9.1187   9.1390   9.1589   9.2876
     9.3630   9.3694   9.5466   9.6748   9.6828   9.6830   9.8045   9.8138
     9.8510   9.9258  10.0203  10.0994

          k = 0.5000 0.0000 0.1000 ( 16992 PWs)   bands (ev):

    -8.9386  -8.9386  -8.9374  -8.9374  -8.9373  -8.9373  -8.9356  -8.9356
    -8.9353  -8.9353  -8.9079  -8.9079  -8.9079  -8.9079  -8.9075  -8.9075
    -8.9073  -8.9073  -8.9072  -8.9072  -8.8744  -8.8744  -8.8744  -8.8744
    -8.8741  -8.8741  -8.8741  -8.8741  -8.8737  -8.8737  -8.8355  -8.8355
    -8.8355  -8.8355  -8.8343  -8.8343  -8.8337  -8.8337  -8.8324  -8.8324
    -8.8316  -8.8316  -8.8315  -8.8315  -8.8314  -8.8314  -8.8313  -8.8313
    -8.8304  -8.8304  -5.6393  -5.6393  -5.6389  -5.6389  -5.4263  -5.4263
    -5.4261  -5.4261  -5.1472  -5.1472  -4.8863  -4.8863  -4.5558  -4.5558
    -4.5557  -4.5557  -4.2583  -4.2583  -4.2579  -4.2579  -0.1412  -0.1412
    -0.1408  -0.1408   0.0730   0.0730   0.0732   0.0732   0.3238   0.3238
     1.0626   1.0626   1.5123   1.5123   1.5124   1.5124   2.1504   2.1504
     2.1507   2.1507   2.2661   2.2661   2.2661   2.2661   2.3102   2.3102
     2.3104   2.3104   2.6469   2.6469   2.7309   2.7309   2.9844   2.9844
     2.9846   2.9846   3.4310   3.4310   3.4310   3.4310   3.9747   3.9747
     3.9747   3.9747   4.1715   4.1715   4.1718   4.1718   4.3897   4.3897
     4.3900   4.3900   4.7196   4.7196   4.7850   4.7850   4.7850   4.7850
     4.8256   4.8256   8.2693   8.2693   8.2696   8.2696   8.6217   8.6217
     8.8796   8.8796   8.8797   8.8797   9.1642   9.1642   9.3082   9.3082
     9.3085   9.3085   9.6946   9.6946   9.6946   9.6946   9.8163   9.8163
     9.8163   9.8163  10.2665  10.2665

          k = 0.4500 0.0000 0.0900 ( 16990 PWs)   bands (ev):

    -8.9406  -8.9394  -8.9392  -8.9374  -8.9371  -8.9370  -8.9358  -8.9357
    -8.9341  -8.9337  -8.9121  -8.9118  -8.9116  -8.9112  -8.9112  -8.9038
    -8.9038  -8.9034  -8.9031  -8.9030  -8.8763  -8.8763  -8.8759  -8.8759
    -8.8757  -8.8721  -8.8720  -8.8718  -8.8717  -8.8713  -8.8368  -8.8366
    -8.8356  -8.8350  -8.8342  -8.8342  -8.8337  -8.8333  -8.8332  -8.8332
    -8.8332  -8.8328  -8.8324  -8.8322  -8.8311  -8.8300  -8.8299  -8.8298
    -8.8297  -8.8288  -5.7976  -5.7858  -5.5823  -5.5503  -5.4807  -5.4703
    -5.2913  -5.2689  -5.2633  -5.0236  -4.9820  -4.7850  -4.6365  -4.5919
    -4.5157  -4.4825  -4.2782  -4.2582  -4.2579  -4.2441  -0.1802  -0.1725
    -0.1280  -0.1127  -0.0326  -0.0099   0.1470   0.1579   0.1869   0.4956
     0.9290   1.2177   1.2689   1.3263   1.7052   1.7826   1.8062   1.8419
     2.1569   2.1717   2.2676   2.3077   2.3505   2.3770   2.3843   2.4088
     2.4675   2.5068   2.5167   2.5841   2.7870   2.9196   2.9284   2.9852
     3.0044   3.0747   3.2279   3.3085   3.5688   3.6500   3.8730   3.9662
     3.9766   3.9770   4.0275   4.0593   4.1850   4.2090   4.3278   4.3786
     4.5106   4.5431   4.5762   4.5886   4.6170   4.6763   4.7823   4.9240
     5.0149   5.0413   8.0680   8.1433   8.4094   8.4835   8.6233   8.6322
     8.6563   8.6822   8.9610   8.9949   9.1187   9.1390   9.1589   9.2876
     9.3630   9.3694   9.5466   9.6748   9.6828   9.6830   9.8045   9.8138
     9.8510   9.9258  10.0203  10.0994

          k = 0.4000 0.0000 0.0800 ( 17004 PWs)   bands (ev):

    -8.9429  -8.9417  -8.9412  -8.9396  -8.9391  -8.9358  -8.9347  -8.9343
    -8.9330  -8.9326  -8.9160  -8.9157  -8.9155  -8.9150  -8.9149  -8.8997
    -8.8996  -8.8993  -8.8989  -8.8989  -8.8777  -8.8776  -8.8772  -8.8772
    -8.8770  -8.8693  -8.8692  -8.8691  -8.8691  -8.8685  -8.8380  -8.8379
    -8.8368  -8.8363  -8.8351  -8.8350  -8.8349  -8.8349  -8.8348  -8.8339
    -8.8331  -8.8329  -8.8319  -8.8314  -8.8300  -8.8283  -8.8283  -8.8282
    -8.8281  -8.8272  -5.9436  -5.9190  -5.7292  -5.6618  -5.3874  -5.3129
    -5.2936  -5.1476  -5.0971  -5.0686  -4.8996  -4.7219  -4.6816  -4.6230
    -4.4732  -4.4185  -4.3050  -4.2586  -4.2578  -4.2365  -0.2332  -0.2220
    -0.1328  -0.1327  -0.1010  -0.0913   0.0017   0.2101   0.3105   0.6684
     0.8164   1.0561   1.1480   1.3947   1.4849   1.5379   1.9040   2.0751
     2.0871   2.1033   2.2547   2.3536   2.3702   2.4422   2.4742   2.4819
     2.5238   2.5790   2.7659   2.8493   2.9372   2.9546   3.0047   3.0446
     3.0487   3.1340   3.1887   3.2033   3.7201   3.7595   3.7956   3.8943
     3.8951   3.9468   3.9767   4.0039   4.0351   4.1025   4.2372   4.2961
     4.4082   4.4747   4.4930   4.5944   4.7656   4.7668   4.8611   4.9853
     5.2251   5.2553   7.8841   8.0315   8.3930   8.4076   8.5575   8.6731
     8.6940   8.7858   8.8711   8.9080   8.9240   8.9266   9.1706   9.2967
     9.2977   9.3063   9.4334   9.4735   9.5300   9.6056   9.7364   9.7897
     9.7922   9.8219   9.8387   9.9178

          k = 0.3500 0.0000 0.0700 ( 16999 PWs)   bands (ev):

    -8.9453  -8.9442  -8.9435  -8.9419  -8.9414  -8.9347  -8.9340  -8.9334
    -8.9322  -8.9318  -8.9197  -8.9193  -8.9191  -8.9186  -8.9185  -8.8955
    -8.8954  -8.8950  -8.8948  -8.8946  -8.8785  -8.8784  -8.8780  -8.8779
    -8.8778  -8.8662  -8.8661  -8.8661  -8.8661  -8.8653  -8.8393  -8.8391
    -8.8380  -8.8374  -8.8366  -8.8365  -8.8364  -8.8364  -8.8361  -8.8355
    -8.8319  -8.8317  -8.8307  -8.8302  -8.8288  -8.8268  -8.8268  -8.8267
    -8.8266  -8.8257  -6.0755  -6.0373  -5.8647  -5.7595  -5.5007  -5.1435
    -5.1387  -5.1126  -4.9981  -4.9313  -4.8095  -4.7767  -4.6480  -4.5807
    -4.4295  -4.3650  -4.3377  -4.2593  -4.2577  -4.2341  -0.3013  -0.2882
    -0.2310  -0.1991  -0.1531  -0.1419  -0.0724   0.2602   0.4437   0.7236
     0.8359   0.8773   0.9786   1.1927   1.2477   1.5937   2.0621   2.0629
     2.1068   2.2563   2.2712   2.3841   2.4105   2.4442   2.5670   2.5925
     2.6826   2.7705   2.8840   2.9043   3.0164   3.0405   3.0987   3.1164
     3.1549   3.3096   3.3120   3.3658   3.6318   3.6720   3.7765   3.8472
     3.8697   3.8797   3.9111   3.9778   3.9799   4.0398   4.0934   4.1361
     4.1830   4.2443   4.6644   4.6884   4.8147   4.9557   5.0128   5.1148
     5.3984   5.4075   7.7210   7.9305   8.1822   8.2373   8.6224   8.6499
     8.6894   8.7459   8.7526   8.7646   8.8106   8.8841   9.0660   9.1228
     9.1442   9.1583   9.1947   9.3263   9.3299   9.3817   9.5525   9.5531
     9.6599   9.6827   9.7206   9.9190

          k = 0.3000 0.0000 0.0600 ( 17010 PWs)   bands (ev):

    -8.9476  -8.9468  -8.9458  -8.9445  -8.9439  -8.9340  -8.9334  -8.9327
    -8.9318  -8.9313  -8.9230  -8.9226  -8.9224  -8.9218  -8.9215  -8.8915
    -8.8914  -8.8911  -8.8908  -8.8907  -8.8790  -8.8788  -8.8785  -8.8783
    -8.8783  -8.8630  -8.8630  -8.8629  -8.8629  -8.8621  -8.8405  -8.8403
    -8.8392  -8.8386  -8.8382  -8.8381  -8.8380  -8.8380  -8.8373  -8.8371
    -8.8309  -8.8308  -8.8297  -8.8294  -8.8279  -8.8255  -8.8254  -8.8252
    -8.8251  -8.8243  -6.1921  -6.1398  -5.9872  -5.8424  -5.6068  -5.2053
    -4.9619  -4.9316  -4.8963  -4.8463  -4.7703  -4.6662  -4.6570  -4.4870
    -4.3857  -4.3753  -4.3226  -4.2604  -4.2573  -4.2356  -0.3844  -0.3694
    -0.3309  -0.3018  -0.2716  -0.1846  -0.0520   0.2948   0.5847   0.6491
     0.7345   0.8207   0.9361   0.9804   0.9920   1.8133   2.0516   2.0850
     2.1747   2.3111   2.3160   2.3654   2.5731   2.6964   2.7182   2.7277
     2.7492   2.8648   2.9530   2.9770   3.0485   3.0895   3.1315   3.2682
     3.4019   3.4128   3.5011   3.6031   3.6078   3.6721   3.7142   3.7146
     3.7150   3.7457   3.8016   3.8556   3.9206   3.9641   3.9978   4.0080
     4.0604   4.3866   4.5710   4.8388   5.0070   5.0348   5.1423   5.3625
     5.4483   5.5514   7.5810   7.8299   8.0016   8.1979   8.3194   8.3853
     8.5674   8.6226   8.6598   8.6644   8.7799   8.8353   8.8555   8.8869
     8.9014   8.9022   8.9730   9.0815   9.1587   9.3150   9.3379   9.5224
     9.5297   9.5772   9.6180   9.6468

          k = 0.2500 0.0000 0.0500 ( 16993 PWs)   bands (ev):

    -8.9499  -8.9492  -8.9479  -8.9469  -8.9460  -8.9335  -8.9329  -8.9322
    -8.9314  -8.9310  -8.9260  -8.9255  -8.9251  -8.9245  -8.9241  -8.8878
    -8.8878  -8.8874  -8.8872  -8.8870  -8.8790  -8.8789  -8.8785  -8.8783
    -8.8783  -8.8599  -8.8598  -8.8598  -8.8597  -8.8589  -8.8416  -8.8413
    -8.8403  -8.8397  -8.8396  -8.8395  -8.8393  -8.8392  -8.8384  -8.8384
    -8.8300  -8.8299  -8.8288  -8.8284  -8.8270  -8.8244  -8.8242  -8.8241
    -8.8241  -8.8232  -6.2923  -6.2255  -6.0952  -5.9098  -5.7041  -5.2532
    -4.9799  -4.7879  -4.7562  -4.6968  -4.6769  -4.6195  -4.5435  -4.4165
    -4.4043  -4.3436  -4.2907  -4.2612  -4.2563  -4.2398  -0.4812  -0.4631
    -0.4338  -0.4044  -0.3862  -0.2224  -0.0273   0.3123   0.5910   0.6266
     0.6777   0.7214   0.7304   0.7453   1.1300   2.0490   2.0703   2.1312
     2.1566   2.3465   2.3877   2.5130   2.6429   2.7301   2.8729   2.8864
     2.9586   3.0001   3.0253   3.1109   3.1471   3.1910   3.2166   3.3418
     3.4403   3.5301   3.5444   3.5628   3.5684   3.5729   3.5828   3.6045
     3.6483   3.6791   3.7685   3.7744   3.8367   3.8537   3.9641   4.1312
     4.2284   4.4358   4.6365   4.9709   5.0108   5.2494   5.3220   5.4003
     5.5804   5.6462   7.4652   7.7168   7.8783   8.1055   8.1275   8.2786
     8.3010   8.3296   8.3843   8.4377   8.4986   8.5270   8.6293   8.6673
     8.7326   8.7499   8.8326   8.9475   9.1396   9.1757   9.2441   9.2444
     9.3097   9.3187   9.4158   9.4628

          k = 0.2000 0.0000 0.0400 ( 16994 PWs)   bands (ev):

    -8.9521  -8.9514  -8.9500  -8.9491  -8.9480  -8.9332  -8.9327  -8.9320
    -8.9314  -8.9307  -8.9285  -8.9280  -8.9275  -8.9269  -8.9263  -8.8847
    -8.8846  -8.8842  -8.8840  -8.8838  -8.8790  -8.8787  -8.8785  -8.8781
    -8.8781  -8.8570  -8.8570  -8.8569  -8.8569  -8.8560  -8.8426  -8.8422
    -8.8412  -8.8408  -8.8407  -8.8407  -8.8405  -8.8404  -8.8396  -8.8394
    -8.8292  -8.8291  -8.8280  -8.8276  -8.8262  -8.8234  -8.8233  -8.8232
    -8.8232  -8.8223  -6.3754  -6.2939  -6.1876  -5.9612  -5.7905  -5.2867
    -5.0579  -4.6799  -4.6238  -4.5934  -4.5559  -4.4851  -4.4594  -4.4397
    -4.3356  -4.3049  -4.2689  -4.2619  -4.2549  -4.2453  -0.5877  -0.5641
    -0.5383  -0.5005  -0.4850  -0.2612   0.0034   0.3118   0.5466   0.5499
     0.5510   0.5529   0.5534   0.8762   1.2430   2.1184   2.1297   2.2739
     2.2948   2.3540   2.4839   2.5678   2.7062   2.9022   2.9713   3.0187
     3.0604   3.1132   3.1471   3.2080   3.2376   3.3001   3.3485   3.3780
     3.3870   3.4020   3.4030   3.4377   3.5093   3.5166   3.5286   3.5680
     3.5775   3.6067   3.6231   3.6678   3.9493   3.9598   4.0923   4.3010
     4.3923   4.5521   4.8769   4.9107   5.1729   5.2743   5.4498   5.4877
     5.6825   5.7340   7.3751   7.6140   7.8152   7.8880   7.9723   8.0000
     8.0411   8.0464   8.1161   8.1487   8.2969   8.3694   8.4653   8.4738
     8.5001   8.5958   8.6141   8.8446   8.9258   8.9527   9.0854   9.0895
     9.1048   9.1067   9.1613   9.3716

          k = 0.1500 0.0000 0.0300 ( 16984 PWs)   bands (ev):

    -8.9538  -8.9533  -8.9517  -8.9508  -8.9497  -8.9331  -8.9327  -8.9319
    -8.9314  -8.9305  -8.9303  -8.9301  -8.9294  -8.9287  -8.9281  -8.8820
    -8.8819  -8.8815  -8.8813  -8.8811  -8.8788  -8.8786  -8.8783  -8.8779
    -8.8779  -8.8546  -8.8546  -8.8545  -8.8543  -8.8535  -8.8434  -8.8431
    -8.8421  -8.8416  -8.8416  -8.8416  -8.8415  -8.8414  -8.8405  -8.8402
    -8.8285  -8.8285  -8.8274  -8.8270  -8.8256  -8.8227  -8.8225  -8.8224
    -8.8223  -8.8214  -6.4406  -6.3444  -6.2635  -5.9962  -5.8647  -5.3055
    -5.1280  -4.6750  -4.5021  -4.4784  -4.4518  -4.4313  -4.3732  -4.3502
    -4.2827  -4.2713  -4.2627  -4.2552  -4.2526  -4.2506  -0.6954  -0.6625
    -0.6386  -0.5825  -0.5668  -0.2964   0.0405   0.2948   0.4025   0.4308
     0.4514   0.4997   0.5131   1.0164   1.3240   2.1719   2.1939   2.3886
     2.4310   2.5276   2.5412   2.6014   2.8801   2.9624   3.0728   3.1461
     3.1509   3.1536   3.1536   3.2048   3.2265   3.2483   3.2657   3.2948
     3.3031   3.3214   3.3782   3.3806   3.4494   3.4526   3.4991   3.5349
     3.5380   3.6009   3.7561   3.8226   3.9526   4.1706   4.2036   4.3208
     4.5391   4.8370   4.9717   5.0960   5.1047   5.3146   5.6177   5.6378
     5.6595   5.7840   7.3123   7.5847   7.6772   7.6843   7.6991   7.7616
     7.8120   7.8224   7.8445   7.9639   8.0495   8.1849   8.2093   8.3547
     8.4625   8.4786   8.5155   8.6782   8.6872   8.7361   8.8395   8.8741
     8.8895   9.0198   9.1732   9.2476

          k = 0.1000 0.0000 0.0200 ( 17002 PWs)   bands (ev):

    -8.9551  -8.9548  -8.9529  -8.9521  -8.9508  -8.9330  -8.9327  -8.9320
    -8.9317  -8.9315  -8.9313  -8.9305  -8.9303  -8.9300  -8.9295  -8.8801
    -8.8799  -8.8796  -8.8792  -8.8791  -8.8786  -8.8783  -8.8781  -8.8777
    -8.8774  -8.8531  -8.8531  -8.8528  -8.8525  -8.8518  -8.8441  -8.8438
    -8.8428  -8.8424  -8.8423  -8.8423  -8.8422  -8.8422  -8.8413  -8.8409
    -8.8282  -8.8281  -8.8271  -8.8266  -8.8252  -8.8220  -8.8220  -8.8219
    -8.8218  -8.8209  -6.4875  -6.3767  -6.3222  -6.0146  -5.9253  -5.3098
    -5.1888  -4.6622  -4.5433  -4.3623  -4.3411  -4.3316  -4.2893  -4.2803
    -4.2629  -4.2556  -4.2498  -4.2476  -4.2461  -4.2446  -0.7905  -0.7451
    -0.7252  -0.6438  -0.6299  -0.3242   0.0831   0.2642   0.2998   0.3514
     0.3744   0.4710   0.4880   1.1438   1.3668   2.2548   2.2906   2.4518
     2.5273   2.6180   2.7357   2.7717   2.9516   2.9663   2.9733   3.0183
     3.0742   3.0933   3.1327   3.1559   3.2208   3.2211   3.2645   3.2865
     3.3126   3.3691   3.3912   3.4020   3.4132   3.4254   3.4311   3.4440
     3.5155   3.7690   3.8738   3.9435   4.0693   4.1479   4.4280   4.5079
     4.6535   4.7643   4.9303   5.2797   5.3757   5.4236   5.5892   5.7157
     5.7313   5.7754   7.2791   7.3572   7.4642   7.5024   7.5232   7.5794
     7.6195   7.6613   7.8475   7.8645   7.9397   7.9667   8.1371   8.2323
     8.2508   8.3230   8.3628   8.5061   8.5340   8.6548   8.6584   8.6903
     8.7857   9.0499   9.0686   9.1273

          k = 0.0500 0.0000 0.0100 ( 17038 PWs)   bands (ev):

    -8.9560  -8.9557  -8.9535  -8.9530  -8.9516  -8.9331  -8.9329  -8.9327
    -8.9325  -8.9316  -8.9313  -8.9311  -8.9308  -8.9306  -8.9304  -8.8787
    -8.8786  -8.8784  -8.8783  -8.8782  -8.8780  -8.8780  -8.8778  -8.8775
    -8.8775  -8.8522  -8.8521  -8.8518  -8.8516  -8.8508  -8.8445  -8.8442
    -8.8432  -8.8430  -8.8429  -8.8427  -8.8427  -8.8427  -8.8418  -8.8413
    -8.8281  -8.8280  -8.8269  -8.8263  -8.8250  -8.8220  -8.8218  -8.8217
    -8.8215  -8.8207  -6.5158  -6.3906  -6.3632  -6.0164  -5.9713  -5.2997
    -5.2383  -4.6417  -4.5813  -4.2869  -4.2699  -4.2667  -4.2632  -4.2594
    -4.2468  -4.2445  -4.2376  -4.2353  -4.2268  -4.2258  -0.8566  -0.7983
    -0.7867  -0.6800  -0.6716  -0.3420   0.1298   0.2240   0.2400   0.3100
     0.3241   0.4590   0.4700   1.2503   1.3678   2.3608   2.3886   2.5462
     2.5757   2.8039   2.8172   2.8199   2.8758   2.8763   2.9023   2.9620
     3.0056   3.0604   3.0944   3.1020   3.1411   3.2361   3.2719   3.3196
     3.3380   3.3428   3.3433   3.3727   3.3945   3.4709   3.4913   3.5006
     3.5231   3.8902   3.9381   3.9430   3.9936   4.4369   4.5881   4.6457
     4.7160   4.7180   4.7915   5.4126   5.4840   5.5061   5.5777   5.7222
     5.8024   5.8657   7.0454   7.2794   7.3303   7.3617   7.3734   7.4134
     7.4827   7.7229   7.7697   7.8376   7.9612   7.9984   8.0781   8.1122
     8.1320   8.2020   8.2361   8.3849   8.4000   8.5063   8.5334   8.6010
     8.6107   8.9959   9.0271   9.0819

          k = 0.0000 0.0000 0.0000 ( 17017 PWs)   bands (ev):

    -8.9562  -8.9559  -8.9539  -8.9534  -8.9518  -8.9331  -8.9331  -8.9328
    -8.9328  -8.9315  -8.9315  -8.9311  -8.9311  -8.9306  -8.9306  -8.8783
    -8.8783  -8.8782  -8.8782  -8.8778  -8.8778  -8.8775  -8.8775  -8.8774
    -8.8774  -8.8516  -8.8515  -8.8514  -8.8513  -8.8504  -8.8447  -8.8444
    -8.8434  -8.8431  -8.8429  -8.8429  -8.8428  -8.8427  -8.8419  -8.8415
    -8.8280  -8.8279  -8.8269  -8.8259  -8.8247  -8.8219  -8.8219  -8.8216
    -8.8212  -8.8205  -6.5253  -6.3862  -6.3860  -6.0019  -6.0017  -5.2756
    -5.2754  -4.6147  -4.6145  -4.2634  -4.2605  -4.2605  -4.2448  -4.2448
    -4.2446  -4.2446  -4.2201  -4.2201  -4.2197  -4.2197  -0.8804  -0.8130
    -0.8127  -0.6892  -0.6889  -0.3482   0.1777   0.1778   0.2205   0.3019
     0.3021   0.4596   0.4599   1.3274   1.3276   2.4298   2.4301   2.6510
     2.6514   2.7462   2.7462   2.7466   2.7466   2.9502   2.9504   3.0787
     3.0789   3.0942   3.0942   3.0943   3.0943   3.0972   3.0973   3.3424
     3.3623   3.3623   3.3638   3.3638   3.3933   3.5169   3.5169   3.5171
     3.5171   3.9502   3.9502   3.9504   3.9504   4.6078   4.6079   4.7183
     4.7183   4.7185   4.7185   5.4817   5.4817   5.4819   5.4819   5.8161
     5.8977   5.8977   6.8917   7.2945   7.2946   7.3180   7.3233   7.3233
     7.4369   7.6951   7.6953   8.0183   8.0541   8.0541   8.0543   8.0543
     8.1282   8.1282   8.1341   8.1342   8.3659   8.5133   8.5134   8.5498
     8.5500   9.0075   9.0075   9.0339

 ------ SPIN DOWN ----------


          k = 0.5000 0.5000 0.1000 ( 17008 PWs)   bands (ev):

    -8.9409  -8.9409  -8.9393  -8.9393  -8.9391  -8.9391  -8.9377  -8.9377
    -8.9374  -8.9374  -8.9112  -8.9112  -8.9107  -8.9107  -8.9106  -8.9106
    -8.9105  -8.9105  -8.9096  -8.9096  -8.8768  -8.8768  -8.8764  -8.8764
    -8.8760  -8.8760  -8.8758  -8.8758  -8.8756  -8.8756  -8.8326  -8.8326
    -8.8323  -8.8323  -8.8312  -8.8312  -8.8311  -8.8311  -8.8309  -8.8309
    -8.8309  -8.8309  -8.8309  -8.8309  -8.8308  -8.8308  -8.8299  -8.8299
    -8.8294  -8.8294  -5.1267  -5.1267  -5.1263  -5.1263  -5.0732  -5.0732
    -5.0729  -5.0729  -5.0387  -5.0387  -4.8864  -4.8864  -4.8860  -4.8860
    -4.8273  -4.8273  -4.8271  -4.8271  -4.7899  -4.7899  -0.6388  -0.6388
    -0.3895  -0.3895  -0.3893  -0.3893  -0.0083  -0.0083   0.1380   0.1380
     0.1383   0.1383   0.2779   0.2779   0.2781   0.2781   0.9535   0.9535
     0.9537   0.9537   2.9028   2.9028   2.9031   2.9031   2.9088   2.9088
     2.9091   2.9091   4.0136   4.0136   4.0137   4.0137   4.0555   4.0555
     4.0557   4.0557   4.7526   4.7526   4.7530   4.7530   4.7811   4.7811
     4.7813   4.7813   4.7829   4.7829   4.7969   4.7969   4.7973   4.7973
     4.7989   4.7989   4.8619   4.8619   4.8622   4.8622   4.9013   4.9013
     4.9028   4.9028   6.8876   6.8876   7.7687   7.7687   7.7688   7.7688
     7.9001   7.9001   8.5198   8.5198   8.5200   8.5200   8.6958   8.6958
     8.6962   8.6962   8.9882   8.9882   8.9886   8.9886  10.2560  10.2560
    10.2561  10.2561  10.2986  10.2986

          k = 0.4500 0.4500 0.0900 ( 16975 PWs)   bands (ev):

    -8.9406  -8.9404  -8.9395  -8.9393  -8.9392  -8.9389  -8.9376  -8.9375
    -8.9372  -8.9371  -8.9110  -8.9109  -8.9107  -8.9106  -8.9105  -8.9104
    -8.9103  -8.9100  -8.9098  -8.9093  -8.8765  -8.8764  -8.8764  -8.8763
    -8.8761  -8.8759  -8.8757  -8.8757  -8.8756  -8.8756  -8.8328  -8.8327
    -8.8323  -8.8322  -8.8316  -8.8312  -8.8312  -8.8311  -8.8311  -8.8310
    -8.8310  -8.8307  -8.8307  -8.8307  -8.8306  -8.8305  -8.8301  -8.8297
    -8.8296  -8.8293  -5.2605  -5.2543  -5.1585  -5.1455  -5.1122  -5.1088
    -5.0652  -5.0604  -5.0546  -5.0231  -4.8752  -4.8716  -4.8185  -4.8121
    -4.8107  -4.7849  -4.7821  -4.7778  -4.7722  -4.7718  -0.6290  -0.5780
    -0.4066  -0.3978  -0.3608  -0.3590   0.0074   0.0482   0.0635   0.1035
     0.1094   0.1519   0.2632   0.3172   0.3378   0.3975   0.9209   0.9839
     1.0474   1.1140   2.5819   2.6616   2.8648   2.8800   2.9506   2.9524
     3.2019   3.2859   3.6813   3.8093   3.8940   3.9554   4.0101   4.0656
     4.2866   4.3968   4.5597   4.5657   4.6393   4.6528   4.6552   4.6638
     4.6715   4.6777   4.6835   4.6884   4.6913   4.6960   4.7265   4.7622
     4.7626   4.7728   4.7767   4.8739   4.8793   4.8942   4.9481   4.9536
     4.9804   4.9817   6.9673   7.1047   7.6534   7.7707   7.8199   7.9352
     7.9689   8.0581   8.5270   8.5974   8.5995   8.6148   8.6523   8.6840
     8.8015   8.8555   8.9522   8.9781   9.1435   9.1550  10.1554  10.1629
    10.2498  10.2739  10.2775  10.3011

          k = 0.4000 0.4000 0.0800 ( 16955 PWs)   bands (ev):

    -8.9410  -8.9400  -8.9398  -8.9394  -8.9388  -8.9383  -8.9378  -8.9374
    -8.9370  -8.9366  -8.9112  -8.9111  -8.9110  -8.9109  -8.9102  -8.9090
    -8.9089  -8.9088  -8.9086  -8.9079  -8.8767  -8.8765  -8.8763  -8.8759
    -8.8757  -8.8756  -8.8756  -8.8751  -8.8751  -8.8750  -8.8337  -8.8336
    -8.8325  -8.8321  -8.8321  -8.8320  -8.8320  -8.8319  -8.8317  -8.8317
    -8.8309  -8.8308  -8.8306  -8.8303  -8.8300  -8.8300  -8.8298  -8.8298
    -8.8290  -8.8289  -5.4746  -5.4572  -5.3286  -5.2862  -5.1417  -5.0663
    -5.0597  -5.0167  -5.0053  -4.9773  -4.8689  -4.8397  -4.8325  -4.7860
    -4.7737  -4.7450  -4.7437  -4.7114  -4.6201  -4.6091  -0.6013  -0.4122
    -0.4046  -0.3459  -0.3257  -0.3033  -0.0420   0.0188   0.0533   0.0669
     0.1435   0.2138   0.2733   0.3768   0.5387   0.6781   0.8879   1.0026
     1.3173   1.4580   2.3320   2.4809   2.8463   2.8718   2.9903   2.9994
     3.3651   3.5386   3.6222   3.6663   3.7066   3.7658   3.8312   3.9361
     4.1935   4.2710   4.3453   4.3629   4.4033   4.4055   4.4134   4.4235
     4.4927   4.4942   4.5241   4.5391   4.5522   4.5567   4.5683   4.6035
     4.6699   4.7124   4.7312   4.7720   4.8080   4.8683   5.0243   5.0614
     5.1635   5.1760   7.1747   7.5091   7.5664   7.7097   7.9941   8.1546
     8.1751   8.4345   8.4559   8.5062   8.5848   8.6603   8.7943   8.8346
     8.9362   8.9485   8.9812   9.1482   9.5171   9.5657  10.0611  10.1056
    10.1200  10.1695  10.2100  10.2381

          k = 0.3500 0.3500 0.0700 ( 16943 PWs)   bands (ev):

    -8.9418  -8.9408  -8.9402  -8.9389  -8.9387  -8.9381  -8.9380  -8.9375
    -8.9363  -8.9359  -8.9126  -8.9124  -8.9123  -8.9121  -8.9116  -8.9062
    -8.9061  -8.9060  -8.9059  -8.9053  -8.8769  -8.8767  -8.8765  -8.8761
    -8.8760  -8.8740  -8.8739  -8.8736  -8.8734  -8.8733  -8.8351  -8.8350
    -8.8339  -8.8333  -8.8333  -8.8332  -8.8330  -8.8329  -8.8321  -8.8321
    -8.8317  -8.8316  -8.8304  -8.8299  -8.8289  -8.8288  -8.8286  -8.8286
    -8.8285  -8.8277  -5.6920  -5.6607  -5.5220  -5.4403  -5.2568  -4.9908
    -4.9811  -4.9490  -4.9442  -4.9274  -4.9035  -4.7813  -4.7709  -4.7524
    -4.7318  -4.7141  -4.6888  -4.6622  -4.5069  -4.4719  -0.5610  -0.4101
    -0.2944  -0.2065  -0.2045  -0.1419  -0.1056  -0.0548   0.0063   0.1010
     0.1261   0.3060   0.4487   0.4784   0.8361   0.8512   0.9951   1.0733
     1.6792   1.8936   2.1893   2.3812   2.8526   2.8874   3.0002   3.0204
     3.1055   3.3527   3.4819   3.4856   3.4857   3.6392   3.6594   3.8151
     3.9047   4.0760   4.1007   4.1301   4.1355   4.1385   4.1511   4.1710
     4.2929   4.3151   4.3527   4.3607   4.3799   4.4015   4.4566   4.5196
     4.5959   4.6158   4.7313   4.8173   4.8311   4.9848   5.0582   5.1534
     5.3163   5.3526   7.4511   7.4560   7.6567   8.0561   8.1255   8.2513
     8.2636   8.3179   8.4084   8.6192   8.6199   8.6583   8.8128   8.8561
     8.8606   8.8767   8.9583   9.1253   9.3585   9.5547  10.0518  10.0830
    10.1452  10.3051  10.3090  10.3206

          k = 0.3000 0.3000 0.0600 ( 16962 PWs)   bands (ev):

    -8.9437  -8.9428  -8.9418  -8.9404  -8.9396  -8.9380  -8.9371  -8.9364
    -8.9353  -8.9349  -8.9152  -8.9150  -8.9147  -8.9146  -8.9142  -8.9022
    -8.9021  -8.9019  -8.9018  -8.9015  -8.8772  -8.8770  -8.8767  -8.8764
    -8.8763  -8.8709  -8.8709  -8.8707  -8.8707  -8.8702  -8.8368  -8.8367
    -8.8356  -8.8351  -8.8351  -8.8350  -8.8349  -8.8347  -8.8339  -8.8338
    -8.8312  -8.8310  -8.8299  -8.8295  -8.8281  -8.8273  -8.8272  -8.8271
    -8.8271  -8.8262  -5.8966  -5.8501  -5.7154  -5.5901  -5.3947  -5.0376
    -4.8891  -4.8766  -4.8461  -4.8249  -4.8053  -4.8050  -4.7034  -4.6902
    -4.6590  -4.6391  -4.6372  -4.6170  -4.4437  -4.3717  -0.5183  -0.4090
    -0.2830  -0.1139  -0.1099  -0.0801  -0.0700   0.0119   0.0141   0.1782
     0.2190   0.3552   0.5185   0.8022   0.8271   0.9440   1.1997   1.5483
     2.0745   2.0946   2.4003   2.4659   2.8877   2.9265   2.9279   2.9490
     2.9863   3.0224   3.0869   3.1573   3.1669   3.2684   3.3572   3.3969
     3.7780   3.8232   3.9137   3.9168   3.9473   3.9964   4.1233   4.1389
     4.1531   4.1738   4.2373   4.2731   4.2883   4.2943   4.3163   4.3607
     4.4988   4.5988   4.6576   4.7881   5.0509   5.0618   5.1067   5.2274
     5.4318   5.5065   7.5493   7.6484   7.7640   8.0674   8.1228   8.1407
     8.1926   8.4082   8.4713   8.4726   8.5031   8.6114   8.6434   8.7446
     8.7446   8.7531   8.8474   8.8852   9.0832   9.2064   9.7165  10.0282
    10.1288  10.2364  10.2463  10.3400

          k = 0.2500 0.2500 0.0500 ( 16967 PWs)   bands (ev):

    -8.9462  -8.9453  -8.9441  -8.9429  -8.9420  -8.9367  -8.9361  -8.9353
    -8.9343  -8.9338  -8.9188  -8.9185  -8.9182  -8.9179  -8.9176  -8.8972
    -8.8971  -8.8967  -8.8966  -8.8965  -8.8775  -8.8772  -8.8770  -8.8766
    -8.8765  -8.8668  -8.8668  -8.8667  -8.8667  -8.8660  -8.8387  -8.8386
    -8.8375  -8.8372  -8.8371  -8.8370  -8.8368  -8.8365  -8.8358  -8.8357
    -8.8305  -8.8303  -8.8293  -8.8288  -8.8275  -8.8259  -8.8259  -8.8258
    -8.8256  -8.8248  -6.0797  -6.0172  -5.8958  -5.7249  -5.5390  -5.1230
    -4.8883  -4.7664  -4.7518  -4.7278  -4.7032  -4.6875  -4.6354  -4.6112
    -4.5966  -4.5727  -4.5482  -4.5326  -4.4273  -4.3083  -0.4879  -0.4210
    -0.3111  -0.1995  -0.1586  -0.1298  -0.0813   0.0711   0.2887   0.3204
     0.4106   0.5201   0.5645   0.7299   0.8390   1.2410   1.6072   2.0751
     2.1851   2.3532   2.6821   2.7280   2.7355   2.7522   2.8457   2.8570
     2.8877   2.9009   2.9169   2.9497   2.9534   2.9917   3.0340   3.3780
     3.5570   3.6147   3.7772   3.7908   3.7972   3.8438   3.9661   3.9742
     3.9803   4.0008   4.0527   4.0701   4.0792   4.0802   4.1601   4.3747
     4.6012   4.6734   4.7464   5.0125   5.0183   5.0982   5.2657   5.2857
     5.5076   5.6344   7.6924   7.7879   7.8912   7.9394   7.9749   8.0169
     8.0522   8.2750   8.3082   8.3291   8.3681   8.4700   8.5085   8.5836
     8.6045   8.6194   8.7751   8.7753   8.8396   9.1757   9.4062   9.8259
     9.8732  10.1301  10.1359  10.1525

          k = 0.2000 0.2000 0.0400 ( 17009 PWs)   bands (ev):

    -8.9489  -8.9483  -8.9469  -8.9460  -8.9448  -8.9355  -8.9351  -8.9341
    -8.9334  -8.9329  -8.9230  -8.9226  -8.9221  -8.9217  -8.9215  -8.8917
    -8.8916  -8.8912  -8.8911  -8.8911  -8.8777  -8.8775  -8.8773  -8.8769
    -8.8768  -8.8623  -8.8623  -8.8622  -8.8621  -8.8613  -8.8406  -8.8405
    -8.8394  -8.8390  -8.8389  -8.8388  -8.8387  -8.8384  -8.8377  -8.8376
    -8.8299  -8.8297  -8.8287  -8.8282  -8.8269  -8.8248  -8.8247  -8.8245
    -8.8245  -8.8236  -6.2356  -6.1571  -6.0548  -5.8382  -5.6763  -5.1964
    -4.9851  -4.6417  -4.6311  -4.6152  -4.5974  -4.5710  -4.5596  -4.5126
    -4.4971  -4.4800  -4.4542  -4.4462  -4.4431  -4.2752  -0.4874  -0.4583
    -0.3920  -0.3504  -0.3149  -0.2098  -0.0300   0.1823   0.4120   0.4573
     0.5626   0.5797   0.6299   0.6879   0.8439   1.6960   2.0345   2.3862
     2.4301   2.4615   2.5702   2.5926   2.6050   2.6332   2.6406   2.7106
     2.7530   2.8215   2.9444   3.0462   3.0739   3.1541   3.4240   3.4327
     3.4850   3.6324   3.6523   3.7115   3.7171   3.7199   3.7714   3.7931
     3.8046   3.8093   3.8174   3.8185   3.8282   3.8678   4.0669   4.2543
     4.5722   4.7116   4.9537   5.0107   5.0397   5.3324   5.3649   5.4139
     5.5467   5.7345   7.7292   7.7535   7.7546   7.7735   7.8421   7.9423
     8.0363   8.1614   8.1929   8.1994   8.2433   8.2726   8.3171   8.4209
     8.4280   8.6036   8.6380   8.8142   8.9095   8.9844   9.3409   9.4439
     9.4962   9.7506   9.9267   9.9412

          k = 0.1500 0.1500 0.0300 ( 17005 PWs)   bands (ev):

    -8.9518  -8.9513  -8.9496  -8.9487  -8.9476  -8.9345  -8.9341  -8.9332
    -8.9325  -8.9317  -8.9269  -8.9265  -8.9259  -8.9255  -8.9249  -8.8866
    -8.8864  -8.8861  -8.8859  -8.8857  -8.8780  -8.8778  -8.8776  -8.8772
    -8.8769  -8.8580  -8.8580  -8.8579  -8.8577  -8.8570  -8.8422  -8.8420
    -8.8410  -8.8405  -8.8405  -8.8403  -8.8402  -8.8401  -8.8392  -8.8392
    -8.8291  -8.8291  -8.8280  -8.8275  -8.8262  -8.8236  -8.8235  -8.8233
    -8.8232  -8.8224  -6.3605  -6.2660  -6.1867  -5.9251  -5.7970  -5.2521
    -5.0812  -4.6487  -4.4950  -4.4855  -4.4790  -4.4673  -4.4403  -4.4328
    -4.4163  -4.4011  -4.3901  -4.3642  -4.3570  -4.2624  -0.5264  -0.5238
    -0.5180  -0.5177  -0.5171  -0.2619   0.0247   0.2408   0.4716   0.4806
     0.5053   0.5123   0.5185   0.8500   1.1079   2.1587   2.2661   2.3148
     2.4443   2.4508   2.4767   2.5594   2.6651   2.6741   2.7200   2.7985
     2.8454   2.9659   3.1551   3.1662   3.3316   3.3648   3.4198   3.4547
     3.5009   3.5040   3.5168   3.5427   3.5573   3.6166   3.6188   3.6194
     3.6231   3.6322   3.6540   3.7063   3.8326   3.9971   4.1461   4.3000
     4.5765   4.6886   4.8860   4.9001   5.3625   5.3723   5.5007   5.5553
     5.5862   5.8096   7.5886   7.6228   7.6267   7.6515   7.7344   7.7796
     7.8429   7.9801   8.0883   8.1486   8.1568   8.1591   8.1906   8.2363
     8.2854   8.6681   8.7599   8.8346   8.9364   9.0334   9.0678   9.0726
     9.1597   9.2086   9.3295   9.5417

          k = 0.1000 0.1000 0.0200 ( 16990 PWs)   bands (ev):

    -8.9541  -8.9537  -8.9518  -8.9512  -8.9499  -8.9338  -8.9333  -8.9323
    -8.9317  -8.9311  -8.9302  -8.9298  -8.9291  -8.9286  -8.9277  -8.8822
    -8.8820  -8.8817  -8.8813  -8.8813  -8.8782  -8.8780  -8.8778  -8.8774
    -8.8771  -8.8545  -8.8544  -8.8543  -8.8542  -8.8534  -8.8435  -8.8432
    -8.8422  -8.8418  -8.8418  -8.8417  -8.8416  -8.8415  -8.8407  -8.8404
    -8.8284  -8.8284  -8.8273  -8.8269  -8.8255  -8.8225  -8.8224  -8.8223
    -8.8221  -8.8213  -6.4514  -6.3414  -6.2874  -5.9824  -5.8941  -5.2852
    -5.1659  -4.6490  -4.5330  -4.3747  -4.3595  -4.3530  -4.3350  -4.3269
    -4.3227  -4.3199  -4.3137  -4.2887  -4.2849  -4.2605  -0.7026  -0.6708
    -0.6572  -0.6031  -0.5942  -0.3070   0.0774   0.2481   0.3648   0.4012
     0.4167   0.4773   0.4871   1.0721   1.2792   2.2434   2.2893   2.4029
     2.4407   2.5841   2.6385   2.7397   2.7585   2.8095   2.8444   2.9929
     3.1492   3.1494   3.1909   3.2098   3.2237   3.2491   3.2542   3.2600
     3.3521   3.3952   3.4201   3.4324   3.4507   3.4599   3.4821   3.5528
     3.6122   3.7240   3.8698   3.8704   3.9537   4.0567   4.1252   4.6150
     4.6807   4.8071   4.8196   4.9556   5.4093   5.5274   5.5424   5.6136
     5.6463   5.8604   7.4048   7.4543   7.5315   7.5648   7.5967   7.6115
     7.7663   7.7992   7.8011   7.9282   7.9534   8.0492   8.1271   8.1642
     8.3404   8.5013   8.6269   8.6649   8.6898   8.7592   8.7910   8.8383
     8.9882   8.9925   9.2254   9.2751

          k = 0.0500 0.0500 0.0100 ( 17031 PWs)   bands (ev):

    -8.9557  -8.9555  -8.9534  -8.9529  -8.9514  -8.9333  -8.9329  -8.9322
    -8.9319  -8.9316  -8.9312  -8.9309  -8.9308  -8.9305  -8.9298  -8.8794
    -8.8792  -8.8790  -8.8786  -8.8785  -8.8784  -8.8781  -8.8779  -8.8775
    -8.8774  -8.8524  -8.8523  -8.8521  -8.8519  -8.8512  -8.8444  -8.8441
    -8.8431  -8.8428  -8.8428  -8.8426  -8.8425  -8.8424  -8.8416  -8.8413
    -8.8281  -8.8281  -8.8270  -8.8265  -8.8251  -8.8219  -8.8219  -8.8218
    -8.8217  -8.8208  -6.5067  -6.3817  -6.3544  -6.0083  -5.9633  -5.2934
    -5.2323  -4.6384  -4.5783  -4.2907  -4.2800  -4.2759  -4.2730  -4.2648
    -4.2623  -4.2620  -4.2484  -4.2463  -4.2381  -4.2366  -0.8332  -0.7781
    -0.7673  -0.6673  -0.6595  -0.3375   0.1283   0.2213   0.2585   0.3245
     0.3377   0.4632   0.4733   1.2327   1.3482   2.3319   2.3599   2.4965
     2.5207   2.7961   2.8572   2.8834   2.8969   2.9056   2.9117   2.9391
     2.9492   2.9618   3.0402   3.2229   3.2574   3.2596   3.2680   3.3010
     3.3188   3.3362   3.3580   3.3810   3.3910   3.4054   3.4375   3.5184
     3.5486   3.8747   3.9330   3.9378   3.9904   4.3480   4.4936   4.6713
     4.6901   4.7514   4.7616   5.4459   5.4986   5.5156   5.5630   5.5717
     5.7686   5.8884   7.1464   7.2974   7.3714   7.3854   7.4027   7.4802
     7.5232   7.7679   7.7861   7.8149   7.9067   7.9752   8.0988   8.1374
     8.1398   8.2301   8.3504   8.4330   8.5049   8.5187   8.5807   8.6114
     8.6466   9.0309   9.0756   9.1154

          k = 0.0000 0.0000 0.0000 ( 17017 PWs)   bands (ev):

    -8.9562  -8.9559  -8.9539  -8.9534  -8.9518  -8.9331  -8.9331  -8.9328
    -8.9328  -8.9315  -8.9315  -8.9311  -8.9311  -8.9306  -8.9306  -8.8783
    -8.8783  -8.8782  -8.8782  -8.8778  -8.8778  -8.8776  -8.8776  -8.8774
    -8.8774  -8.8516  -8.8515  -8.8514  -8.8513  -8.8504  -8.8447  -8.8444
    -8.8434  -8.8431  -8.8430  -8.8429  -8.8428  -8.8427  -8.8419  -8.8416
    -8.8280  -8.8279  -8.8269  -8.8259  -8.8247  -8.8219  -8.8219  -8.8216
    -8.8212  -8.8205  -6.5253  -6.3862  -6.3859  -6.0019  -6.0017  -5.2756
    -5.2754  -4.6147  -4.6145  -4.2633  -4.2605  -4.2605  -4.2447  -4.2447
    -4.2445  -4.2445  -4.2200  -4.2200  -4.2196  -4.2196  -0.8804  -0.8130
    -0.8128  -0.6893  -0.6889  -0.3482   0.1777   0.1778   0.2205   0.3019
     0.3020   0.4595   0.4599   1.3274   1.3276   2.4298   2.4301   2.6511
     2.6514   2.7462   2.7462   2.7466   2.7466   2.9502   2.9504   3.0787
     3.0789   3.0942   3.0942   3.0943   3.0943   3.0972   3.0973   3.3424
     3.3623   3.3623   3.3638   3.3638   3.3934   3.5169   3.5169   3.5171
     3.5171   3.9503   3.9503   3.9504   3.9504   4.6078   4.6079   4.7183
     4.7183   4.7185   4.7185   5.4818   5.4818   5.4819   5.4819   5.8161
     5.8978   5.8978   6.8917   7.2945   7.2945   7.3180   7.3232   7.3232
     7.4369   7.6951   7.6953   8.0183   8.0540   8.0540   8.0542   8.0542
     8.1282   8.1282   8.1341   8.1342   8.3659   8.5132   8.5134   8.5498
     8.5499   9.0075   9.0075   9.0340

          k = 0.0500 0.0000 0.0100 ( 17038 PWs)   bands (ev):

    -8.9560  -8.9557  -8.9535  -8.9530  -8.9516  -8.9331  -8.9329  -8.9327
    -8.9325  -8.9316  -8.9313  -8.9311  -8.9308  -8.9306  -8.9304  -8.8788
    -8.8786  -8.8785  -8.8783  -8.8782  -8.8780  -8.8780  -8.8778  -8.8775
    -8.8775  -8.8522  -8.8521  -8.8518  -8.8516  -8.8509  -8.8445  -8.8442
    -8.8432  -8.8430  -8.8429  -8.8427  -8.8427  -8.8427  -8.8418  -8.8414
    -8.8281  -8.8280  -8.8269  -8.8263  -8.8251  -8.8220  -8.8218  -8.8217
    -8.8215  -8.8207  -6.5158  -6.3906  -6.3632  -6.0164  -5.9713  -5.2996
    -5.2383  -4.6417  -4.5813  -4.2868  -4.2699  -4.2667  -4.2632  -4.2593
    -4.2467  -4.2445  -4.2376  -4.2353  -4.2267  -4.2258  -0.8567  -0.7983
    -0.7868  -0.6800  -0.6717  -0.3421   0.1297   0.2240   0.2399   0.3100
     0.3241   0.4589   0.4700   1.2503   1.3678   2.3608   2.3886   2.5463
     2.5757   2.8039   2.8172   2.8199   2.8758   2.8763   2.9023   2.9620
     3.0056   3.0604   3.0944   3.1020   3.1411   3.2361   3.2719   3.3196
     3.3380   3.3428   3.3433   3.3727   3.3945   3.4709   3.4913   3.5006
     3.5231   3.8902   3.9381   3.9431   3.9936   4.4369   4.5881   4.6457
     4.7160   4.7180   4.7915   5.4126   5.4840   5.5061   5.5778   5.7222
     5.8025   5.8658   7.0454   7.2794   7.3303   7.3616   7.3734   7.4134
     7.4826   7.7229   7.7697   7.8376   7.9611   7.9984   8.0781   8.1122
     8.1320   8.2020   8.2361   8.3849   8.4001   8.5063   8.5334   8.6010
     8.6107   8.9959   9.0271   9.0819

          k = 0.1000 0.0000 0.0200 ( 17002 PWs)   bands (ev):

    -8.9552  -8.9548  -8.9529  -8.9521  -8.9508  -8.9330  -8.9327  -8.9320
    -8.9318  -8.9315  -8.9313  -8.9306  -8.9303  -8.9301  -8.9295  -8.8801
    -8.8799  -8.8796  -8.8792  -8.8791  -8.8786  -8.8783  -8.8781  -8.8777
    -8.8774  -8.8531  -8.8531  -8.8528  -8.8525  -8.8518  -8.8441  -8.8438
    -8.8428  -8.8424  -8.8423  -8.8423  -8.8422  -8.8422  -8.8413  -8.8410
    -8.8282  -8.8281  -8.8271  -8.8266  -8.8252  -8.8220  -8.8220  -8.8219
    -8.8218  -8.8209  -6.4875  -6.3767  -6.3222  -6.0145  -5.9253  -5.3097
    -5.1887  -4.6622  -4.5433  -4.3623  -4.3410  -4.3315  -4.2892  -4.2803
    -4.2629  -4.2556  -4.2497  -4.2475  -4.2460  -4.2446  -0.7906  -0.7451
    -0.7253  -0.6439  -0.6299  -0.3243   0.0831   0.2642   0.2997   0.3514
     0.3743   0.4709   0.4879   1.1438   1.3668   2.2548   2.2906   2.4518
     2.5274   2.6180   2.7357   2.7717   2.9516   2.9663   2.9733   3.0183
     3.0742   3.0933   3.1327   3.1559   3.2208   3.2211   3.2645   3.2865
     3.3126   3.3691   3.3912   3.4020   3.4132   3.4254   3.4311   3.4440
     3.5155   3.7690   3.8738   3.9435   4.0693   4.1479   4.4280   4.5079
     4.6535   4.7643   4.9304   5.2797   5.3757   5.4236   5.5892   5.7158
     5.7314   5.7755   7.2790   7.3572   7.4642   7.5024   7.5231   7.5793
     7.6194   7.6612   7.8474   7.8644   7.9397   7.9666   8.1370   8.2322
     8.2507   8.3230   8.3628   8.5061   8.5340   8.6548   8.6584   8.6903
     8.7856   9.0499   9.0685   9.1273

          k = 0.1500 0.0000 0.0300 ( 16984 PWs)   bands (ev):

    -8.9538  -8.9533  -8.9517  -8.9508  -8.9497  -8.9331  -8.9327  -8.9320
[...]
    -8.8332  -8.8328  -8.8324  -8.8322  -8.8311  -8.8300  -8.8299  -8.8298
    -8.8297  -8.8288  -5.7976  -5.7858  -5.5823  -5.5502  -5.4807  -5.4702
    -5.2913  -5.2689  -5.2633  -5.0235  -4.9820  -4.7850  -4.6365  -4.5919
    -4.5157  -4.4824  -4.2781  -4.2582  -4.2578  -4.2440  -0.1802  -0.1726
    -0.1280  -0.1127  -0.0326  -0.0100   0.1470   0.1578   0.1869   0.4956
     0.9290   1.2176   1.2689   1.3263   1.7052   1.7826   1.8062   1.8419
     2.1569   2.1717   2.2676   2.3077   2.3505   2.3770   2.3843   2.4088
     2.4675   2.5068   2.5167   2.5841   2.7870   2.9196   2.9284   2.9852
     3.0044   3.0747   3.2279   3.3085   3.5688   3.6500   3.8730   3.9662
     3.9766   3.9770   4.0275   4.0593   4.1850   4.2090   4.3278   4.3786
     4.5106   4.5432   4.5762   4.5886   4.6170   4.6764   4.7823   4.9240
     5.0149   5.0413   8.0679   8.1433   8.4093   8.4835   8.6232   8.6322
     8.6563   8.6821   8.9610   8.9949   9.1187   9.1390   9.1589   9.2876
     9.3630   9.3694   9.5466   9.6747   9.6828   9.6830   9.8045   9.8138
     9.8510   9.9257  10.0202  10.0993

          k = 0.5000 0.0000 0.1000 ( 16992 PWs)   bands (ev):

    -8.9386  -8.9386  -8.9374  -8.9374  -8.9373  -8.9373  -8.9356  -8.9356
    -8.9353  -8.9353  -8.9080  -8.9080  -8.9079  -8.9079  -8.9075  -8.9075
    -8.9073  -8.9073  -8.9072  -8.9072  -8.8744  -8.8744  -8.8744  -8.8744
    -8.8742  -8.8742  -8.8741  -8.8741  -8.8737  -8.8737  -8.8355  -8.8355
    -8.8355  -8.8355  -8.8343  -8.8343  -8.8337  -8.8337  -8.8325  -8.8325
    -8.8316  -8.8316  -8.8316  -8.8316  -8.8314  -8.8314  -8.8313  -8.8313
    -8.8304  -8.8304  -5.6393  -5.6393  -5.6389  -5.6389  -5.4262  -5.4262
    -5.4261  -5.4261  -5.1471  -5.1471  -4.8863  -4.8863  -4.5558  -4.5558
    -4.5557  -4.5557  -4.2582  -4.2582  -4.2578  -4.2578  -0.1412  -0.1412
    -0.1409  -0.1409   0.0730   0.0730   0.0731   0.0731   0.3237   0.3237
     1.0626   1.0626   1.5123   1.5123   1.5124   1.5124   2.1504   2.1504
     2.1507   2.1507   2.2661   2.2661   2.2661   2.2661   2.3102   2.3102
     2.3104   2.3104   2.6469   2.6469   2.7309   2.7309   2.9844   2.9844
     2.9846   2.9846   3.4310   3.4310   3.4310   3.4310   3.9747   3.9747
     3.9747   3.9747   4.1715   4.1715   4.1718   4.1718   4.3897   4.3897
     4.3900   4.3900   4.7196   4.7196   4.7850   4.7850   4.7850   4.7850
     4.8256   4.8256   8.2693   8.2693   8.2696   8.2696   8.6216   8.6216
     8.8796   8.8796   8.8797   8.8797   9.1642   9.1642   9.3082   9.3082
     9.3085   9.3085   9.6946   9.6946   9.6946   9.6946   9.8163   9.8163
     9.8163   9.8163  10.2665  10.2665

          k = 0.4500 0.0000 0.0900 ( 16990 PWs)   bands (ev):

    -8.9406  -8.9394  -8.9392  -8.9374  -8.9371  -8.9370  -8.9358  -8.9357
    -8.9341  -8.9337  -8.9121  -8.9119  -8.9116  -8.9112  -8.9112  -8.9039
    -8.9038  -8.9034  -8.9031  -8.9030  -8.8763  -8.8763  -8.8760  -8.8759
    -8.8757  -8.8721  -8.8720  -8.8718  -8.8717  -8.8713  -8.8368  -8.8366
    -8.8356  -8.8350  -8.8342  -8.8342  -8.8337  -8.8333  -8.8332  -8.8332
    -8.8332  -8.8328  -8.8324  -8.8322  -8.8311  -8.8300  -8.8299  -8.8298
    -8.8297  -8.8288  -5.7976  -5.7858  -5.5823  -5.5502  -5.4807  -5.4702
    -5.2913  -5.2689  -5.2633  -5.0235  -4.9820  -4.7850  -4.6365  -4.5919
    -4.5157  -4.4824  -4.2781  -4.2582  -4.2578  -4.2440  -0.1802  -0.1726
    -0.1280  -0.1127  -0.0326  -0.0100   0.1470   0.1578   0.1869   0.4956
     0.9290   1.2176   1.2689   1.3263   1.7052   1.7826   1.8062   1.8419
     2.1569   2.1717   2.2676   2.3077   2.3505   2.3770   2.3843   2.4088
     2.4675   2.5068   2.5167   2.5841   2.7870   2.9196   2.9284   2.9852
     3.0044   3.0747   3.2279   3.3085   3.5688   3.6500   3.8730   3.9662
     3.9766   3.9770   4.0275   4.0593   4.1850   4.2090   4.3278   4.3786
     4.5106   4.5432   4.5762   4.5886   4.6170   4.6764   4.7823   4.9240
     5.0149   5.0413   8.0679   8.1433   8.4093   8.4835   8.6232   8.6322
     8.6563   8.6821   8.9610   8.9949   9.1187   9.1390   9.1589   9.2876
     9.3630   9.3694   9.5466   9.6747   9.6828   9.6830   9.8045   9.8138
     9.8510   9.9257  10.0202  10.0993

          k = 0.4000 0.0000 0.0800 ( 17004 PWs)   bands (ev):

    -8.9429  -8.9417  -8.9413  -8.9396  -8.9391  -8.9358  -8.9347  -8.9344
    -8.9330  -8.9326  -8.9160  -8.9157  -8.9155  -8.9150  -8.9150  -8.8997
    -8.8996  -8.8993  -8.8989  -8.8989  -8.8777  -8.8776  -8.8772  -8.8772
    -8.8770  -8.8693  -8.8692  -8.8691  -8.8691  -8.8685  -8.8380  -8.8379
    -8.8368  -8.8363  -8.8351  -8.8350  -8.8349  -8.8349  -8.8348  -8.8339
    -8.8331  -8.8329  -8.8319  -8.8314  -8.8300  -8.8283  -8.8283  -8.8282
    -8.8281  -8.8272  -5.9436  -5.9190  -5.7292  -5.6617  -5.3873  -5.3129
    -5.2936  -5.1476  -5.0970  -5.0685  -4.8995  -4.7219  -4.6816  -4.6230
    -4.4731  -4.4184  -4.3050  -4.2586  -4.2577  -4.2365  -0.2332  -0.2221
    -0.1329  -0.1327  -0.1011  -0.0914   0.0017   0.2101   0.3105   0.6683
     0.8164   1.0561   1.1479   1.3947   1.4849   1.5378   1.9040   2.0751
     2.0871   2.1033   2.2547   2.3536   2.3702   2.4422   2.4742   2.4819
     2.5238   2.5790   2.7659   2.8493   2.9372   2.9546   3.0047   3.0446
     3.0487   3.1340   3.1887   3.2033   3.7201   3.7595   3.7956   3.8944
     3.8951   3.9468   3.9767   4.0039   4.0351   4.1025   4.2373   4.2961
     4.4082   4.4747   4.4930   4.5944   4.7656   4.7668   4.8611   4.9854
     5.2251   5.2553   7.8841   8.0315   8.3929   8.4075   8.5574   8.6730
     8.6940   8.7858   8.8711   8.9080   8.9240   8.9266   9.1706   9.2967
     9.2976   9.3063   9.4334   9.4735   9.5300   9.6056   9.7364   9.7897
     9.7922   9.8218   9.8387   9.9178

          k = 0.3500 0.0000 0.0700 ( 16999 PWs)   bands (ev):

    -8.9453  -8.9442  -8.9435  -8.9419  -8.9414  -8.9347  -8.9340  -8.9334
    -8.9322  -8.9318  -8.9197  -8.9193  -8.9191  -8.9186  -8.9185  -8.8956
    -8.8954  -8.8950  -8.8948  -8.8947  -8.8785  -8.8784  -8.8780  -8.8779
    -8.8778  -8.8662  -8.8662  -8.8661  -8.8661  -8.8654  -8.8393  -8.8391
    -8.8380  -8.8374  -8.8366  -8.8366  -8.8364  -8.8364  -8.8362  -8.8355
    -8.8319  -8.8317  -8.8307  -8.8302  -8.8289  -8.8268  -8.8268  -8.8267
    -8.8266  -8.8257  -6.0755  -6.0373  -5.8647  -5.7594  -5.5006  -5.1434
    -5.1387  -5.1126  -4.9981  -4.9312  -4.8094  -4.7766  -4.6479  -4.5807
    -4.4295  -4.3649  -4.3376  -4.2593  -4.2577  -4.2340  -0.3013  -0.2882
    -0.2311  -0.1992  -0.1531  -0.1420  -0.0724   0.2602   0.4436   0.7235
     0.8359   0.8773   0.9786   1.1927   1.2476   1.5937   2.0621   2.0629
     2.1068   2.2563   2.2712   2.3841   2.4105   2.4442   2.5670   2.5925
     2.6827   2.7705   2.8840   2.9043   3.0164   3.0405   3.0987   3.1164
     3.1549   3.3096   3.3120   3.3658   3.6318   3.6720   3.7765   3.8472
     3.8697   3.8797   3.9111   3.9778   3.9799   4.0398   4.0934   4.1361
     4.1830   4.2443   4.6644   4.6885   4.8147   4.9557   5.0128   5.1148
     5.3984   5.4076   7.7210   7.9304   8.1822   8.2373   8.6224   8.6498
     8.6894   8.7459   8.7526   8.7646   8.8106   8.8840   9.0659   9.1228
     9.1442   9.1583   9.1946   9.3262   9.3299   9.3817   9.5525   9.5530
     9.6599   9.6827   9.7206   9.9190

          k = 0.3000 0.0000 0.0600 ( 17010 PWs)   bands (ev):

    -8.9476  -8.9468  -8.9458  -8.9445  -8.9439  -8.9340  -8.9334  -8.9327
    -8.9318  -8.9313  -8.9231  -8.9226  -8.9224  -8.9218  -8.9215  -8.8916
    -8.8915  -8.8910  -8.8908  -8.8907  -8.8790  -8.8788  -8.8785  -8.8783
    -8.8783  -8.8630  -8.8630  -8.8630  -8.8629  -8.8621  -8.8405  -8.8403
    -8.8392  -8.8386  -8.8382  -8.8381  -8.8380  -8.8380  -8.8373  -8.8371
    -8.8309  -8.8308  -8.8297  -8.8294  -8.8280  -8.8255  -8.8254  -8.8252
    -8.8251  -8.8243  -6.1921  -6.1398  -5.9871  -5.8424  -5.6068  -5.2053
    -4.9619  -4.9316  -4.8963  -4.8463  -4.7702  -4.6662  -4.6570  -4.4870
    -4.3857  -4.3752  -4.3225  -4.2604  -4.2573  -4.2356  -0.3844  -0.3694
    -0.3310  -0.3018  -0.2716  -0.1847  -0.0521   0.2948   0.5847   0.6491
     0.7345   0.8206   0.9361   0.9803   0.9920   1.8133   2.0516   2.0850
     2.1747   2.3110   2.3160   2.3654   2.5731   2.6964   2.7182   2.7278
     2.7492   2.8648   2.9530   2.9770   3.0485   3.0895   3.1315   3.2683
     3.4019   3.4128   3.5011   3.6031   3.6078   3.6721   3.7142   3.7146
     3.7150   3.7457   3.8016   3.8556   3.9207   3.9641   3.9978   4.0080
     4.0604   4.3866   4.5711   4.8388   5.0071   5.0349   5.1423   5.3626
     5.4483   5.5514   7.5809   7.8299   8.0016   8.1978   8.3194   8.3852
     8.5674   8.6226   8.6598   8.6644   8.7799   8.8352   8.8554   8.8869
     8.9014   8.9022   8.9729   9.0815   9.1586   9.3150   9.3379   9.5224
     9.5297   9.5772   9.6180   9.6468

          k = 0.2500 0.0000 0.0500 ( 16993 PWs)   bands (ev):

    -8.9500  -8.9492  -8.9479  -8.9469  -8.9461  -8.9335  -8.9329  -8.9322
    -8.9315  -8.9310  -8.9260  -8.9255  -8.9251  -8.9246  -8.9241  -8.8878
    -8.8878  -8.8874  -8.8872  -8.8870  -8.8791  -8.8789  -8.8785  -8.8783
    -8.8783  -8.8599  -8.8598  -8.8598  -8.8597  -8.8589  -8.8416  -8.8413
    -8.8403  -8.8397  -8.8396  -8.8396  -8.8393  -8.8392  -8.8384  -8.8384
    -8.8300  -8.8299  -8.8288  -8.8284  -8.8270  -8.8244  -8.8242  -8.8241
    -8.8241  -8.8232  -6.2923  -6.2255  -6.0951  -5.9098  -5.7040  -5.2532
    -4.9799  -4.7879  -4.7561  -4.6968  -4.6768  -4.6195  -4.5434  -4.4164
    -4.4042  -4.3435  -4.2907  -4.2611  -4.2562  -4.2398  -0.4812  -0.4632
    -0.4339  -0.4045  -0.3862  -0.2224  -0.0274   0.3122   0.5910   0.6265
     0.6777   0.7214   0.7304   0.7453   1.1300   2.0490   2.0703   2.1312
     2.1566   2.3465   2.3877   2.5130   2.6429   2.7301   2.8729   2.8864
     2.9586   3.0001   3.0253   3.1109   3.1471   3.1910   3.2166   3.3418
     3.4404   3.5301   3.5444   3.5628   3.5684   3.5729   3.5828   3.6046
     3.6483   3.6791   3.7685   3.7744   3.8367   3.8537   3.9641   4.1312
     4.2284   4.4358   4.6365   4.9709   5.0108   5.2494   5.3220   5.4003
     5.5804   5.6462   7.4652   7.7168   7.8783   8.1055   8.1275   8.2786
     8.3010   8.3296   8.3843   8.4377   8.4986   8.5270   8.6292   8.6673
     8.7326   8.7499   8.8326   8.9474   9.1395   9.1756   9.2441   9.2443
     9.3097   9.3187   9.4158   9.4628

          k = 0.2000 0.0000 0.0400 ( 16994 PWs)   bands (ev):

    -8.9521  -8.9514  -8.9500  -8.9491  -8.9480  -8.9333  -8.9327  -8.9320
    -8.9314  -8.9307  -8.9285  -8.9280  -8.9275  -8.9269  -8.9263  -8.8847
    -8.8846  -8.8842  -8.8840  -8.8838  -8.8790  -8.8788  -8.8785  -8.8781
    -8.8781  -8.8570  -8.8570  -8.8569  -8.8569  -8.8560  -8.8426  -8.8422
    -8.8412  -8.8408  -8.8407  -8.8407  -8.8405  -8.8404  -8.8396  -8.8394
    -8.8292  -8.8291  -8.8280  -8.8276  -8.8262  -8.8234  -8.8233  -8.8232
    -8.8232  -8.8223  -6.3753  -6.2939  -6.1876  -5.9612  -5.7905  -5.2867
    -5.0578  -4.6799  -4.6237  -4.5933  -4.5559  -4.4850  -4.4594  -4.4397
    -4.3356  -4.3048  -4.2688  -4.2618  -4.2548  -4.2452  -0.5877  -0.5641
    -0.5383  -0.5005  -0.4850  -0.2612   0.0034   0.3118   0.5466   0.5498
     0.5510   0.5529   0.5533   0.8762   1.2430   2.1184   2.1297   2.2739
     2.2948   2.3540   2.4839   2.5678   2.7062   2.9022   2.9713   3.0187
     3.0604   3.1132   3.1471   3.2080   3.2376   3.3001   3.3485   3.3780
     3.3870   3.4020   3.4030   3.4377   3.5093   3.5166   3.5286   3.5680
     3.5775   3.6067   3.6232   3.6678   3.9493   3.9598   4.0923   4.3010
     4.3923   4.5521   4.8769   4.9108   5.1729   5.2744   5.4499   5.4877
     5.6826   5.7340   7.3751   7.6140   7.8152   7.8879   7.9722   7.9999
     8.0411   8.0463   8.1160   8.1487   8.2969   8.3694   8.4653   8.4738
     8.5001   8.5958   8.6141   8.8446   8.9258   8.9527   9.0853   9.0895
     9.1048   9.1067   9.1613   9.3715

          k = 0.1500 0.0000 0.0300 ( 16984 PWs)   bands (ev):

    -8.9538  -8.9533  -8.9517  -8.9508  -8.9497  -8.9331  -8.9327  -8.9320
    -8.9314  -8.9305  -8.9303  -8.9301  -8.9294  -8.9287  -8.9281  -8.8820
    -8.8819  -8.8815  -8.8813  -8.8811  -8.8788  -8.8786  -8.8783  -8.8779
    -8.8779  -8.8546  -8.8546  -8.8545  -8.8543  -8.8535  -8.8434  -8.8431
    -8.8421  -8.8416  -8.8416  -8.8416  -8.8415  -8.8414  -8.8405  -8.8403
    -8.8285  -8.8285  -8.8274  -8.8270  -8.8256  -8.8227  -8.8225  -8.8224
    -8.8223  -8.8215  -6.4406  -6.3444  -6.2635  -5.9961  -5.8647  -5.3055
    -5.1280  -4.6750  -4.5021  -4.4783  -4.4517  -4.4313  -4.3732  -4.3501
    -4.2826  -4.2712  -4.2626  -4.2551  -4.2525  -4.2506  -0.6955  -0.6626
    -0.6386  -0.5825  -0.5669  -0.2964   0.0404   0.2948   0.4025   0.4308
     0.4514   0.4997   0.5130   1.0164   1.3240   2.1719   2.1939   2.3886
     2.4310   2.5276   2.5412   2.6014   2.8801   2.9624   3.0729   3.1461
     3.1509   3.1536   3.1536   3.2048   3.2265   3.2483   3.2657   3.2948
     3.3031   3.3214   3.3782   3.3806   3.4494   3.4526   3.4991   3.5349
     3.5381   3.6009   3.7561   3.8226   3.9526   4.1706   4.2036   4.3208
     4.5391   4.8370   4.9717   5.0960   5.1048   5.3147   5.6177   5.6378
     5.6596   5.7841   7.3123   7.5847   7.6772   7.6843   7.6991   7.7616
     7.8120   7.8224   7.8444   7.9638   8.0494   8.1849   8.2093   8.3546
     8.4625   8.4786   8.5155   8.6782   8.6872   8.7360   8.8394   8.8741
     8.8894   9.0198   9.1732   9.2476

          k = 0.1000 0.0000 0.0200 ( 17002 PWs)   bands (ev):

    -8.9552  -8.9548  -8.9529  -8.9521  -8.9508  -8.9330  -8.9327  -8.9320
    -8.9318  -8.9315  -8.9313  -8.9306  -8.9303  -8.9301  -8.9295  -8.8801
    -8.8799  -8.8796  -8.8792  -8.8791  -8.8786  -8.8783  -8.8781  -8.8777
    -8.8774  -8.8531  -8.8531  -8.8528  -8.8525  -8.8518  -8.8441  -8.8438
    -8.8428  -8.8424  -8.8423  -8.8423  -8.8422  -8.8422  -8.8413  -8.8410
    -8.8282  -8.8281  -8.8271  -8.8266  -8.8252  -8.8220  -8.8220  -8.8219
    -8.8218  -8.8209  -6.4875  -6.3767  -6.3222  -6.0145  -5.9253  -5.3097
    -5.1887  -4.6622  -4.5433  -4.3623  -4.3410  -4.3315  -4.2892  -4.2803
    -4.2629  -4.2556  -4.2497  -4.2475  -4.2460  -4.2446  -0.7906  -0.7451
    -0.7253  -0.6439  -0.6299  -0.3243   0.0831   0.2642   0.2997   0.3514
     0.3743   0.4709   0.4879   1.1438   1.3668   2.2548   2.2906   2.4518
     2.5274   2.6180   2.7357   2.7717   2.9516   2.9663   2.9733   3.0183
     3.0742   3.0933   3.1327   3.1559   3.2208   3.2211   3.2645   3.2865
     3.3126   3.3691   3.3912   3.4020   3.4132   3.4254   3.4311   3.4440
     3.5155   3.7690   3.8738   3.9435   4.0693   4.1479   4.4280   4.5079
     4.6535   4.7643   4.9304   5.2797   5.3757   5.4236   5.5892   5.7158
     5.7314   5.7755   7.2790   7.3572   7.4642   7.5024   7.5231   7.5793
     7.6194   7.6612   7.8474   7.8644   7.9397   7.9666   8.1370   8.2322
     8.2507   8.3230   8.3628   8.5061   8.5340   8.6548   8.6584   8.6903
     8.7856   9.0499   9.0685   9.1273

          k = 0.0500 0.0000 0.0100 ( 17038 PWs)   bands (ev):

    -8.9560  -8.9557  -8.9535  -8.9530  -8.9516  -8.9331  -8.9329  -8.9327
    -8.9325  -8.9316  -8.9313  -8.9311  -8.9308  -8.9306  -8.9304  -8.8788
    -8.8786  -8.8785  -8.8783  -8.8782  -8.8780  -8.8780  -8.8778  -8.8775
    -8.8775  -8.8522  -8.8521  -8.8518  -8.8516  -8.8509  -8.8445  -8.8442
    -8.8432  -8.8430  -8.8429  -8.8427  -8.8427  -8.8427  -8.8418  -8.8414
    -8.8281  -8.8280  -8.8269  -8.8263  -8.8251  -8.8220  -8.8218  -8.8217
    -8.8215  -8.8207  -6.5158  -6.3906  -6.3632  -6.0164  -5.9713  -5.2996
    -5.2383  -4.6417  -4.5813  -4.2868  -4.2699  -4.2667  -4.2632  -4.2593
    -4.2467  -4.2445  -4.2376  -4.2353  -4.2267  -4.2258  -0.8567  -0.7983
    -0.7868  -0.6800  -0.6717  -0.3421   0.1297   0.2240   0.2399   0.3100
     0.3241   0.4589   0.4700   1.2503   1.3678   2.3608   2.3886   2.5463
     2.5757   2.8039   2.8172   2.8199   2.8758   2.8763   2.9023   2.9620
     3.0056   3.0604   3.0944   3.1020   3.1411   3.2361   3.2719   3.3196
     3.3380   3.3428   3.3433   3.3727   3.3945   3.4709   3.4913   3.5006
     3.5231   3.8902   3.9381   3.9431   3.9936   4.4369   4.5881   4.6457
     4.7160   4.7180   4.7915   5.4126   5.4840   5.5061   5.5778   5.7222
     5.8025   5.8658   7.0454   7.2794   7.3303   7.3616   7.3734   7.4134
     7.4826   7.7229   7.7697   7.8376   7.9611   7.9984   8.0781   8.1122
     8.1320   8.2020   8.2361   8.3849   8.4001   8.5063   8.5334   8.6010
     8.6107   8.9959   9.0271   9.0819

          k = 0.0000 0.0000 0.0000 ( 17017 PWs)   bands (ev):

    -8.9562  -8.9559  -8.9539  -8.9534  -8.9518  -8.9331  -8.9331  -8.9328
    -8.9328  -8.9315  -8.9315  -8.9311  -8.9311  -8.9306  -8.9306  -8.8783
    -8.8783  -8.8782  -8.8782  -8.8778  -8.8778  -8.8776  -8.8776  -8.8774
    -8.8774  -8.8516  -8.8515  -8.8514  -8.8513  -8.8504  -8.8447  -8.8444
    -8.8434  -8.8431  -8.8430  -8.8429  -8.8428  -8.8427  -8.8419  -8.8416
    -8.8280  -8.8279  -8.8269  -8.8259  -8.8247  -8.8219  -8.8219  -8.8216
    -8.8212  -8.8205  -6.5253  -6.3862  -6.3859  -6.0019  -6.0017  -5.2756
    -5.2754  -4.6147  -4.6145  -4.2633  -4.2605  -4.2605  -4.2447  -4.2447
    -4.2445  -4.2445  -4.2200  -4.2200  -4.2196  -4.2196  -0.8804  -0.8130
    -0.8128  -0.6893  -0.6889  -0.3482   0.1777   0.1778   0.2205   0.3019
     0.3020   0.4595   0.4599   1.3274   1.3276   2.4298   2.4301   2.6511
     2.6514   2.7462   2.7462   2.7466   2.7466   2.9502   2.9504   3.0787
     3.0789   3.0942   3.0942   3.0943   3.0943   3.0972   3.0973   3.3424
     3.3623   3.3623   3.3638   3.3638   3.3934   3.5169   3.5169   3.5171
     3.5171   3.9503   3.9503   3.9504   3.9504   4.6078   4.6079   4.7183
     4.7183   4.7185   4.7185   5.4818   5.4818   5.4819   5.4819   5.8161
     5.8978   5.8978   6.8917   7.2945   7.2945   7.3180   7.3232   7.3232
     7.4369   7.6951   7.6953   8.0183   8.0540   8.0540   8.0542   8.0542
     8.1282   8.1282   8.1341   8.1342   8.3659   8.5132   8.5134   8.5498
     8.5499   9.0075   9.0075   9.0339

     Writing all to output data dir ./outputs/gaalas_sl.save/

     init_run     :      9.30s CPU     10.17s WALL (       1 calls)
     electrons    :   6394.59s CPU   6672.05s WALL (       1 calls)

     Called by init_run:
     wfcinit      :      0.00s CPU      0.00s WALL (       1 calls)
     potinit      :      7.08s CPU      7.53s WALL (       1 calls)
     hinit0       :      1.24s CPU      1.45s WALL (       1 calls)

     Called by electrons:
     c_bands      :   6394.59s CPU   6671.99s WALL (       1 calls)
     v_of_rho     :      0.20s CPU      0.29s WALL (       1 calls)
     newd         :      0.88s CPU      1.06s WALL (       1 calls)
     PAW_pot      :      6.85s CPU      7.21s WALL (       1 calls)

     Called by c_bands:
     init_us_2    :      0.88s CPU      1.24s WALL (      62 calls)
     init_us_2:cp :      0.88s CPU      1.24s WALL (      62 calls)
     cegterg      :   6109.52s CPU   6476.60s WALL (     222 calls)

     Called by *egterg:
     cdiaghg      :    525.37s CPU    319.38s WALL (    3883 calls)
     h_psi        :   2624.70s CPU   2371.57s WALL (    4105 calls)
     s_psi        :    779.53s CPU    622.60s WALL (    4105 calls)
     g_psi        :     22.32s CPU     12.90s WALL (    3821 calls)

     Called by h_psi:
     h_psi:calbec :    788.85s CPU    924.52s WALL (    4105 calls)
     vloc_psi     :   1042.26s CPU    708.39s WALL (    4105 calls)
     add_vuspsi   :    783.92s CPU    741.74s WALL (    4105 calls)

     General routines
     calbec       :    788.81s CPU    924.51s WALL (    4105 calls)
     fft          :      0.64s CPU      0.75s WALL (      21 calls)
     fftw         :    889.22s CPU    580.14s WALL (  418626 calls)
     davcio       :      0.53s CPU      2.28s WALL (     124 calls)

     Parallel routines

     PWSCF        :      1h46m CPU      1h51m WALL


   This run was terminated on:  22: 7:47   5Jan2025            

=------------------------------------------------------------------------------=
   JOB DONE.
=------------------------------------------------------------------------------=
