
     Program PWSCF v.7.0 starts on  5Jan2025 at 19:42:35 

     This program is part of the open-source Quantum ESPRESSO suite
     for quantum simulation of materials; please cite
         "P. Giannozzi et al., J. Phys.:Condens. Matter 21 395502 (2009);
         "P. Giannozzi et al., J. Phys.:Condens. Matter 29 465901 (2017);
         "P. Giannozzi et al., J. Chem. Phys. 152 154105 (2020);
          URL http://www.quantum-espresso.org", 
     in publications or presentations arising from this work. More details at
     http://www.quantum-espresso.org/quote

     Parallel version (MPI & OpenMP), running on       2 processor cores
     Number of MPI processes:                 2
     Threads/MPI process:                     1

     MPI processes distributed on     1 nodes
     R & G space division:  proc/nbgrp/npool/nimage =       2
     3594 MiB available memory on the printing compute node when the environment starts

     Reading input from pw.scf.n1.5Ao.in

     Current dimensions of program PWSCF are:
     Max number of different atomic species (ntypx) = 10
     Max number of k-points (npk) =  40000
     Max angular momentum in pseudopotentials (lmaxx) =  4
     file Al.pbe-n-kjpaw_psl.1.0.0.UPF: wavefunction(s)  3S 3P renormalized
     file Ga.pbe-dn-kjpaw_psl.1.0.0.UPF: wavefunction(s)  4S renormalized

     IMPORTANT: XC functional enforced from input :
     Exchange-correlation= PBE
                           (   1   4   3   4   0   0   0)
     Any further DFT definition will be discarded
     Please, verify this is what you really want

     Found identity + ( -0.5000 -0.5000  0.0000) symmetry
     This is a supercell, fractional translations are disabled
     Message from routine setup:
     using ibrav=0 with symmetry is DISCOURAGED, use correct ibrav instead

     Subspace diagonalization in iterative solution of the eigenvalue problem:
     a serial algorithm will be used


     Parallelization info
     --------------------
     sticks:   dense  smooth     PW     G-vecs:    dense   smooth      PW
     Min         546     546    146                67962    67962    9812
     Max         547     547    147                67965    67965    9835
     Sum        1093    1093    293               135927   135927   19647

     Using Slab Decomposition



     bravais-lattice index     =            0
     lattice parameter (alat)  =      10.6974  a.u.
     unit-cell volume          =    6120.6851 (a.u.)^3
     number of atoms/cell      =           40
     number of atomic types    =            3
     number of electrons       =       260.00
     number of Kohn-Sham states=          156
     kinetic-energy cutoff     =      30.0000  Ry
     charge density cutoff     =     120.0000  Ry
     scf convergence threshold =      1.0E-07
     mixing beta               =       0.3000
     number of iterations used =            8  plain     mixing
     Exchange-correlation= PBE
                           (   1   4   3   4   0   0   0)

     celldm(1)=  10.697362  celldm(2)=   0.000000  celldm(3)=   0.000000
     celldm(4)=   0.000000  celldm(5)=   0.000000  celldm(6)=   0.000000

     crystal axes: (cart. coord. in units of alat)
               a(1) = (   1.000000   0.000000   0.000000 )  
               a(2) = (   0.000000   1.000000   0.000000 )  
               a(3) = (   0.000000   0.000000   5.000000 )  

     reciprocal axes: (cart. coord. in units 2 pi/alat)
               b(1) = (  1.000000  0.000000  0.000000 )  
               b(2) = (  0.000000  1.000000  0.000000 )  
               b(3) = (  0.000000  0.000000  0.200000 )  


     PseudoPot. # 1 for Al read from file:
     ../../Chapter11/Pseudopotentials/Al.pbe-n-kjpaw_psl.1.0.0.UPF
     MD5 check sum: 502b6b27b9c6270cab5dd1084b96fa6d
     Pseudo is Projector augmented-wave + core cor, Zval =  3.0
     Generated using &quot;atomic&quot; code by A. Dal Corso  v.6.3
     Shape of augmentation charge: PSQ
     Using radial grid of 1135 points,  6 beta functions with: 
                l(1) =   0
                l(2) =   0
                l(3) =   1
                l(4) =   1
                l(5) =   2
                l(6) =   2
     Q(r) pseudized with 0 coefficients 


     PseudoPot. # 2 for As read from file:
     ../../Chapter11/Pseudopotentials/As.pbe-n-kjpaw_psl.1.0.0.UPF
     MD5 check sum: 21b474db91924651be503153fb2dbf55
     Pseudo is Projector augmented-wave + core cor, Zval =  5.0
     Generated using &quot;atomic&quot; code by A. Dal Corso  v.6.3
     Shape of augmentation charge: PSQ
     Using radial grid of 1209 points,  4 beta functions with: 
                l(1) =   0
                l(2) =   0
                l(3) =   1
                l(4) =   1
     Q(r) pseudized with 0 coefficients 


     PseudoPot. # 3 for Ga read from file:
     ../../Chapter11/Pseudopotentials/Ga.pbe-dn-kjpaw_psl.1.0.0.UPF
     MD5 check sum: 50ce49cbf7e0a40ad8623bf41840a268
     Pseudo is Projector augmented-wave + core cor, Zval = 13.0
     Generated using &quot;atomic&quot; code by A. Dal Corso  v.6.3
     Shape of augmentation charge: PSQ
     Using radial grid of 1205 points,  6 beta functions with: 
                l(1) =   0
                l(2) =   0
                l(3) =   1
                l(4) =   1
                l(5) =   2
                l(6) =   2
     Q(r) pseudized with 0 coefficients 


     atomic species   valence    mass     pseudopotential
        Al             3.00    26.98100     Al( 1.00)
        As             5.00    74.92100     As( 1.00)
        Ga            13.00    69.72300     Ga( 1.00)

     Starting magnetic structure 
     atomic species   magnetization
        Al           1.000
        As           1.000
        Ga           1.000

      8 Sym. Ops. (no inversion) found



   Cartesian axes

     site n.     atom                  positions (alat units)
         1           As  tau(   1) = (   0.2500000   0.2500000   0.2500000  )
         2           As  tau(   2) = (   0.7500000   0.2500000   0.7500000  )
         3           As  tau(   3) = (   0.7500000   0.7500000   0.2500000  )
         4           As  tau(   4) = (   0.2500000   0.7500000   0.7500000  )
         5           As  tau(   5) = (   0.2500000   0.2500000   4.2500000  )
         6           As  tau(   6) = (   0.2500000   0.2500000   2.2500000  )
         7           As  tau(   7) = (   0.2500000   0.2500000   1.2500000  )
         8           As  tau(   8) = (   0.2500000   0.2500000   3.2500000  )
         9           As  tau(   9) = (   0.7500000   0.2500000   4.7500000  )
        10           As  tau(  10) = (   0.7500000   0.2500000   2.7500000  )
        11           As  tau(  11) = (   0.7500000   0.2500000   1.7500000  )
        12           As  tau(  12) = (   0.7500000   0.2500000   3.7500000  )
        13           As  tau(  13) = (   0.7500000   0.7500000   4.2500000  )
        14           As  tau(  14) = (   0.7500000   0.7500000   2.2500000  )
        15           As  tau(  15) = (   0.7500000   0.7500000   1.2500000  )
        16           As  tau(  16) = (   0.7500000   0.7500000   3.2500000  )
        17           As  tau(  17) = (   0.2500000   0.7500000   4.7500000  )
        18           As  tau(  18) = (   0.2500000   0.7500000   2.7500000  )
        19           As  tau(  19) = (   0.2500000   0.7500000   1.7500000  )
        20           As  tau(  20) = (   0.2500000   0.7500000   3.7500000  )
        21           Al  tau(  21) = (   0.0000000   0.0000000   0.0000000  )
        22           Al  tau(  22) = (   0.5000000   0.5000000   0.0000000  )
        23           Ga  tau(  23) = (   0.5000000   0.0000000   0.5000000  )
        24           Ga  tau(  24) = (   0.0000000   0.5000000   0.5000000  )
        25           Al  tau(  25) = (   0.0000000   0.0000000   1.0000000  )
        26           Al  tau(  26) = (   0.5000000   0.5000000   1.0000000  )
        27           Ga  tau(  27) = (   0.5000000   0.0000000   1.5000000  )
        28           Ga  tau(  28) = (   0.0000000   0.5000000   1.5000000  )
        29           Al  tau(  29) = (   0.0000000   0.0000000   2.0000000  )
        30           Al  tau(  30) = (   0.5000000   0.5000000   2.0000000  )
        31           Ga  tau(  31) = (   0.5000000   0.0000000   2.5000000  )
        32           Ga  tau(  32) = (   0.0000000   0.5000000   2.5000000  )
        33           Al  tau(  33) = (   0.0000000   0.0000000   3.0000000  )
        34           Al  tau(  34) = (   0.5000000   0.5000000   3.0000000  )
        35           Ga  tau(  35) = (   0.5000000   0.0000000   3.5000000  )
        36           Ga  tau(  36) = (   0.0000000   0.5000000   3.5000000  )
        37           Al  tau(  37) = (   0.0000000   0.0000000   4.0000000  )
        38           Al  tau(  38) = (   0.5000000   0.5000000   4.0000000  )
        39           Ga  tau(  39) = (   0.5000000   0.0000000   4.5000000  )
        40           Ga  tau(  40) = (   0.0000000   0.5000000   4.5000000  )

     number of k points=     6  Marzari-Vanderbilt smearing, width (Ry)=  0.0050
                       cart. coord. in units 2pi/alat
        k(    1) = (   0.0000000   0.0000000   0.0000000), wk =   0.0370370
        k(    2) = (   0.0000000   0.0000000   0.0666667), wk =   0.0740741
        k(    3) = (   0.0000000   0.3333333   0.0000000), wk =   0.1481481
        k(    4) = (   0.0000000   0.3333333   0.0666667), wk =   0.2962963
        k(    5) = (   0.3333333   0.3333333   0.0000000), wk =   0.1481481
        k(    6) = (   0.3333333   0.3333333   0.0666667), wk =   0.2962963

     Dense  grid:   135927 G-vectors     FFT dimensions: (  40,  40, 192)

     Estimated max dynamical RAM per process >     663.99 MB

     Estimated total dynamical RAM >       1.30 GB

     Check: negative core charge=   -0.000009
     Generating pointlists ...
     new r_m :   0.1786 (alat units)  1.9107 (a.u.) for type    1
     new r_m :   0.1786 (alat units)  1.9107 (a.u.) for type    2
     new r_m :   0.1786 (alat units)  1.9107 (a.u.) for type    3

     Initial potential from superposition of free atoms

     starting charge     259.9428, renormalised to     260.0000
     Starting wfcs are  210 randomized atomic wfcs
     Checking if some PAW data can be deallocated... 

     total cpu time spent up to now is       16.6 secs

     per-process dynamical memory:   390.6 Mb

     Self-consistent Calculation

     iteration #  1     ecut=    30.00 Ry     beta= 0.30
     Davidson diagonalization with overlap
     ethr =  1.00E-02,  avg # of iterations =  3.0

     total cpu time spent up to now is      159.1 secs

     total energy              =   -6676.94365848 Ry
     estimated scf accuracy    <      67.80121457 Ry

     total magnetization       =    19.08 Bohr mag/cell
     absolute magnetization    =    19.27 Bohr mag/cell

     iteration #  2     ecut=    30.00 Ry     beta= 0.30
     Davidson diagonalization with overlap
     ethr =  1.00E-02,  avg # of iterations =  1.0

     total cpu time spent up to now is      293.8 secs

     total energy              =   -6693.83337793 Ry
     estimated scf accuracy    <      33.74458327 Ry

     total magnetization       =     9.11 Bohr mag/cell
     absolute magnetization    =     9.47 Bohr mag/cell

     iteration #  3     ecut=    30.00 Ry     beta= 0.30
     Davidson diagonalization with overlap
     ethr =  1.00E-02,  avg # of iterations =  2.4

     total cpu time spent up to now is      378.5 secs

     total energy              =   -6692.16164108 Ry
     estimated scf accuracy    <      76.65053092 Ry

     total magnetization       =     2.60 Bohr mag/cell
     absolute magnetization    =     2.99 Bohr mag/cell

     iteration #  4     ecut=    30.00 Ry     beta= 0.30
     Davidson diagonalization with overlap
     ethr =  1.00E-02,  avg # of iterations =  1.2

     total cpu time spent up to now is      445.6 secs

     total energy              =   -6694.87499300 Ry
     estimated scf accuracy    <       0.15778245 Ry

     total magnetization       =     0.00 Bohr mag/cell
     absolute magnetization    =     1.07 Bohr mag/cell

     iteration #  5     ecut=    30.00 Ry     beta= 0.30
     Davidson diagonalization with overlap
     ethr =  6.07E-05,  avg # of iterations =  9.2

     total cpu time spent up to now is      667.1 secs

     total energy              =   -6694.90614353 Ry
     estimated scf accuracy    <       0.10861248 Ry

     total magnetization       =    -0.00 Bohr mag/cell
     absolute magnetization    =     0.62 Bohr mag/cell

     iteration #  6     ecut=    30.00 Ry     beta= 0.30
     Davidson diagonalization with overlap
     ethr =  4.18E-05,  avg # of iterations =  4.2

     total cpu time spent up to now is      740.9 secs

     total energy              =   -6694.91474255 Ry
     estimated scf accuracy    <       0.05709423 Ry

     total magnetization       =    -0.00 Bohr mag/cell
     absolute magnetization    =     0.49 Bohr mag/cell

     iteration #  7     ecut=    30.00 Ry     beta= 0.30
     Davidson diagonalization with overlap
     ethr =  2.20E-05,  avg # of iterations =  4.3

     total cpu time spent up to now is      871.8 secs

     total energy              =   -6694.91841725 Ry
     estimated scf accuracy    <       0.01790859 Ry

     total magnetization       =     0.00 Bohr mag/cell
     absolute magnetization    =     0.32 Bohr mag/cell

     iteration #  8     ecut=    30.00 Ry     beta= 0.30
     Davidson diagonalization with overlap
     ethr =  6.89E-06,  avg # of iterations =  7.2

     total cpu time spent up to now is     1008.9 secs

     total energy              =   -6694.91876078 Ry
     estimated scf accuracy    <       0.01071840 Ry

     total magnetization       =    -0.00 Bohr mag/cell
     absolute magnetization    =     0.28 Bohr mag/cell

     iteration #  9     ecut=    30.00 Ry     beta= 0.30
     Davidson diagonalization with overlap
     ethr =  4.12E-06,  avg # of iterations =  9.2

     total cpu time spent up to now is     1106.3 secs

     total energy              =   -6694.91921638 Ry
     estimated scf accuracy    <       0.00176227 Ry

     total magnetization       =     0.00 Bohr mag/cell
     absolute magnetization    =     0.13 Bohr mag/cell

     iteration # 10     ecut=    30.00 Ry     beta= 0.30
     Davidson diagonalization with overlap
     ethr =  6.78E-07,  avg # of iterations =  2.1

     total cpu time spent up to now is     1245.3 secs

     total energy              =   -6694.91926344 Ry
     estimated scf accuracy    <       0.00056132 Ry

     total magnetization       =     0.00 Bohr mag/cell
     absolute magnetization    =     0.08 Bohr mag/cell

     iteration # 11     ecut=    30.00 Ry     beta= 0.30
     Davidson diagonalization with overlap
     ethr =  2.16E-07,  avg # of iterations =  4.3

     total cpu time spent up to now is     1310.7 secs

     total energy              =   -6694.91927249 Ry
     estimated scf accuracy    <       0.00017788 Ry

     total magnetization       =    -0.00 Bohr mag/cell
     absolute magnetization    =     0.06 Bohr mag/cell

     iteration # 12     ecut=    30.00 Ry     beta= 0.30
     Davidson diagonalization with overlap
     ethr =  6.84E-08,  avg # of iterations =  6.4

     total cpu time spent up to now is     1448.7 secs

     total energy              =   -6694.91929625 Ry
     estimated scf accuracy    <       0.00001277 Ry

     total magnetization       =     0.00 Bohr mag/cell
     absolute magnetization    =     0.02 Bohr mag/cell

     iteration # 13     ecut=    30.00 Ry     beta= 0.30
     Davidson diagonalization with overlap
     ethr =  4.91E-09,  avg # of iterations =  4.5

     total cpu time spent up to now is     1600.0 secs

     total energy              =   -6694.91930242 Ry
     estimated scf accuracy    <       0.00000091 Ry

     total magnetization       =     0.00 Bohr mag/cell
     absolute magnetization    =     0.01 Bohr mag/cell

     iteration # 14     ecut=    30.00 Ry     beta= 0.30
     Davidson diagonalization with overlap
     ethr =  3.52E-10,  avg # of iterations =  2.1

     total cpu time spent up to now is     1741.8 secs

     total energy              =   -6694.91930259 Ry
     estimated scf accuracy    <       0.00000019 Ry

     total magnetization       =     0.00 Bohr mag/cell
     absolute magnetization    =     0.01 Bohr mag/cell

     iteration # 15     ecut=    30.00 Ry     beta= 0.30
     Davidson diagonalization with overlap
     ethr =  7.38E-11,  avg # of iterations =  2.8

     Magnetic moment per site  (integrated on atomic sphere of radius R)
     atom   1 (R=0.179)  charge=  2.7699  magn=  0.0000
     atom   2 (R=0.179)  charge=  2.7699  magn=  0.0000
     atom   3 (R=0.179)  charge=  2.7699  magn=  0.0000
     atom   4 (R=0.179)  charge=  2.7699  magn=  0.0000
     atom   5 (R=0.179)  charge=  2.7699  magn=  0.0000
     atom   6 (R=0.179)  charge=  2.7699  magn=  0.0000
     atom   7 (R=0.179)  charge=  2.7699  magn=  0.0000
     atom   8 (R=0.179)  charge=  2.7699  magn=  0.0000
     atom   9 (R=0.179)  charge=  2.7699  magn=  0.0000
     atom  10 (R=0.179)  charge=  2.7699  magn=  0.0000
     atom  11 (R=0.179)  charge=  2.7699  magn=  0.0000
     atom  12 (R=0.179)  charge=  2.7699  magn=  0.0000
     atom  13 (R=0.179)  charge=  2.7699  magn=  0.0000
     atom  14 (R=0.179)  charge=  2.7699  magn=  0.0000
     atom  15 (R=0.179)  charge=  2.7699  magn=  0.0000
     atom  16 (R=0.179)  charge=  2.7699  magn=  0.0000
     atom  17 (R=0.179)  charge=  2.7699  magn=  0.0000
     atom  18 (R=0.179)  charge=  2.7699  magn=  0.0000
     atom  19 (R=0.179)  charge=  2.7699  magn=  0.0000
     atom  20 (R=0.179)  charge=  2.7699  magn=  0.0000
     atom  21 (R=0.179)  charge=  1.0813  magn= -0.0000
     atom  22 (R=0.179)  charge=  1.0813  magn= -0.0000
     atom  23 (R=0.179)  charge= 11.0474  magn= -0.0000
     atom  24 (R=0.179)  charge= 11.0474  magn= -0.0000
     atom  25 (R=0.179)  charge=  1.0807  magn= -0.0000
     atom  26 (R=0.179)  charge=  1.0807  magn= -0.0000
     atom  27 (R=0.179)  charge= 11.0473  magn= -0.0000
     atom  28 (R=0.179)  charge= 11.0473  magn= -0.0000
     atom  29 (R=0.179)  charge=  1.0810  magn= -0.0000
     atom  30 (R=0.179)  charge=  1.0810  magn= -0.0000
     atom  31 (R=0.179)  charge= 11.0475  magn= -0.0000
     atom  32 (R=0.179)  charge= 11.0475  magn= -0.0000
     atom  33 (R=0.179)  charge=  1.0810  magn= -0.0000
     atom  34 (R=0.179)  charge=  1.0810  magn= -0.0000
     atom  35 (R=0.179)  charge= 11.0473  magn= -0.0000
     atom  36 (R=0.179)  charge= 11.0473  magn= -0.0000
     atom  37 (R=0.179)  charge=  1.0807  magn= -0.0000
     atom  38 (R=0.179)  charge=  1.0807  magn= -0.0000
     atom  39 (R=0.179)  charge= 11.0474  magn= -0.0000
     atom  40 (R=0.179)  charge= 11.0474  magn= -0.0000

     total cpu time spent up to now is     1834.7 secs

     End of self-consistent calculation

 ------ SPIN UP ------------


          k = 0.0000 0.0000 0.0000 ( 17017 PWs)   bands (ev):

    -8.9562  -8.9562  -8.9539  -8.9538  -8.9521  -8.9333  -8.9333  -8.9331
    -8.9331  -8.9317  -8.9317  -8.9310  -8.9310  -8.9308  -8.9308  -8.8788
    -8.8788  -8.8783  -8.8783  -8.8781  -8.8781  -8.8775  -8.8775  -8.8774
    -8.8774  -8.8516  -8.8514  -8.8514  -8.8513  -8.8513  -8.8447  -8.8444
    -8.8434  -8.8431  -8.8429  -8.8429  -8.8428  -8.8427  -8.8427  -8.8424
    -8.8280  -8.8280  -8.8269  -8.8259  -8.8255  -8.8219  -8.8218  -8.8217
    -8.8212  -8.8212  -6.5252  -6.3860  -6.3860  -6.0018  -6.0017  -5.2755
    -5.2754  -4.6145  -4.6145  -4.2633  -4.2604  -4.2604  -4.2446  -4.2446
    -4.2446  -4.2446  -4.2199  -4.2199  -4.2198  -4.2198  -0.8802  -0.8128
    -0.8127  -0.6889  -0.6889  -0.3480   0.1779   0.1779   0.2206   0.3021
     0.3021   0.4598   0.4599   1.3276   1.3276   2.4300   2.4301   2.6513
     2.6513   2.7465   2.7465   2.7465   2.7465   2.9504   2.9504   3.0789
     3.0789   3.0943   3.0943   3.0944   3.0944   3.0973   3.0973   3.3425
     3.3624   3.3624   3.3639   3.3639   3.3934   3.5170   3.5170   3.5171
     3.5171   3.9504   3.9504   3.9504   3.9504   4.6079   4.6080   4.7185
     4.7185   4.7185   4.7185   5.4819   5.4819   5.4819   5.4819   5.8162
     5.8978   5.8978   6.8919   7.2947   7.2947   7.3181   7.3234   7.3234
     7.4371   7.6953   7.6954   8.0184   8.0543   8.0543   8.0543   8.0543
     8.1283   8.1284   8.1341   8.1344   8.3660   8.5134   8.5135   8.5500
     8.5500   9.0076   9.0076   9.0341

          k = 0.0000 0.0000 0.0667 ( 17041 PWs)   bands (ev):

    -8.9568  -8.9555  -8.9547  -8.9530  -8.9522  -8.9334  -8.9334  -8.9330
    -8.9330  -8.9321  -8.9321  -8.9308  -8.9308  -8.9308  -8.9308  -8.8789
    -8.8789  -8.8784  -8.8784  -8.8782  -8.8782  -8.8775  -8.8775  -8.8774
    -8.8774  -8.8518  -8.8516  -8.8516  -8.8514  -8.8513  -8.8446  -8.8445
    -8.8434  -8.8433  -8.8430  -8.8430  -8.8429  -8.8428  -8.8424  -8.8424
    -8.8280  -8.8277  -8.8267  -8.8264  -8.8257  -8.8219  -8.8217  -8.8215
    -8.8214  -8.8213  -6.5095  -6.4629  -6.2806  -6.1498  -5.8673  -5.4470
    -5.0569  -4.8298  -4.4324  -4.3078  -4.2584  -4.2584  -4.2526  -4.2526
    -4.2356  -4.2356  -4.2270  -4.2270  -4.2160  -4.2160  -0.8721  -0.8486
    -0.7693  -0.7253  -0.6683  -0.2839  -0.1010   0.2303   0.2585   0.3559
     0.4120   0.4877   0.5264   0.9198   1.6701   2.3580   2.5648   2.5849
     2.6980   2.7001   2.7001   2.7463   2.7723   2.8349   2.8349   2.9296
     2.9560   2.9560   3.1446   3.2272   3.2272   3.2484   3.2885   3.3256
     3.3256   3.3548   3.3811   3.3811   3.4324   3.4324   3.5643   3.6339
     3.6339   3.7806   3.7806   4.0810   4.1149   4.1149   4.5103   4.5103
     4.9706   4.9706   5.1258   5.2312   5.2312   5.5872   5.6967   5.6967
     5.8442   5.8442   7.0287   7.1866   7.4077   7.4121   7.4121   7.4200
     7.5302   7.5423   7.6656   7.6656   7.7045   7.8130   7.8340   8.0679
     8.2327   8.3229   8.4083   8.4457   8.5478   8.5478   8.6710   8.6760
     8.6771   8.7957   8.9191   9.1055

          k = 0.0000 0.3333 0.0000 ( 17002 PWs)   bands (ev):

    -8.9458  -8.9458  -8.9436  -8.9435  -8.9424  -8.9345  -8.9344  -8.9328
    -8.9323  -8.9317  -8.9212  -8.9209  -8.9203  -8.9196  -8.9195  -8.8947
    -8.8940  -8.8940  -8.8934  -8.8931  -8.8791  -8.8787  -8.8786  -8.8781
    -8.8780  -8.8652  -8.8651  -8.8650  -8.8650  -8.8649  -8.8399  -8.8395
    -8.8385  -8.8379  -8.8375  -8.8372  -8.8371  -8.8369  -8.8369  -8.8369
    -8.8316  -8.8315  -8.8304  -8.8300  -8.8294  -8.8265  -8.8262  -8.8261
    -8.8261  -8.8260  -6.1304  -6.0029  -6.0029  -5.6559  -5.6559  -5.0891
    -5.0204  -5.0203  -5.0071  -5.0070  -4.8008  -4.8007  -4.4865  -4.4864
    -4.4864  -4.4863  -4.2963  -4.2962  -4.2283  -4.2263  -0.3319  -0.2918
    -0.2918  -0.2045  -0.2045  -0.1960   0.0838   0.0838   0.7129   0.7129
     0.7439   0.7440   1.0223   1.0223   1.1741   1.8791   1.8791   2.1117
     2.1117   2.1406   2.1406   2.5985   2.5985   2.6256   2.6257   2.6647
     2.6701   2.8346   2.8370   2.8656   2.8656   2.9850   2.9851   3.3438
     3.3438   3.3630   3.3630   3.5451   3.6535   3.6535   3.6754   3.6754
     3.7953   3.7998   3.8485   3.8486   4.0347   4.0347   4.1528   4.1528
     4.3166   4.3166   4.4879   4.4879   4.9323   4.9517   5.2652   5.2652
     5.3710   5.3710   7.5849   8.0864   8.0865   8.4416   8.4417   8.5509
     8.5847   8.5847   8.6577   8.7466   8.7466   8.8068   8.8068   9.1078
     9.1203   9.1493   9.2949   9.2950   9.3130   9.3130   9.5313   9.5314
     9.6869   9.6871   9.8189   9.8189

          k = 0.0000 0.3333 0.0667 ( 17008 PWs)   bands (ev):

    -8.9462  -8.9453  -8.9444  -8.9429  -8.9424  -8.9345  -8.9342  -8.9333
    -8.9321  -8.9318  -8.9212  -8.9208  -8.9204  -8.9197  -8.9196  -8.8947
    -8.8941  -8.8940  -8.8935  -8.8932  -8.8791  -8.8788  -8.8785  -8.8780
    -8.8780  -8.8653  -8.8652  -8.8651  -8.8651  -8.8650  -8.8397  -8.8395
    -8.8384  -8.8378  -8.8374  -8.8372  -8.8371  -8.8370  -8.8369  -8.8368
    -8.8316  -8.8313  -8.8304  -8.8300  -8.8294  -8.8263  -8.8263  -8.8262
    -8.8261  -8.8261  -6.1160  -6.0732  -5.9070  -5.7887  -5.5368  -5.1656
    -5.0797  -5.0519  -4.9475  -4.8768  -4.8387  -4.7362  -4.6548  -4.5483
    -4.4149  -4.3496  -4.3496  -4.2596  -4.2577  -4.2341  -0.3272  -0.3135
    -0.2639  -0.2329  -0.1867  -0.1625  -0.0658   0.2738   0.4900   0.6969
     0.8258   0.8896   0.9246   1.1030   1.1557   1.6648   2.0558   2.0644
     2.1751   2.2253   2.2832   2.3927   2.4835   2.4892   2.6150   2.6362
     2.7402   2.8362   2.8380   2.9178   3.0557   3.0654   3.0916   3.1546
     3.2266   3.3515   3.4431   3.4455   3.5822   3.6464   3.7402   3.8004
     3.8168   3.8900   3.9039   3.9293   3.9615   3.9834   4.0679   4.0985
     4.1661   4.2193   4.6525   4.7229   4.8887   5.0144   5.0186   5.1991
     5.4258   5.4605   7.6719   7.8977   8.1164   8.2105   8.5161   8.5619
     8.7026   8.7125   8.7198   8.7741   8.7800   8.9037   8.9933   9.0204
     9.0413   9.1081   9.1777   9.2064   9.2447   9.4047   9.4206   9.5406
     9.5502   9.6617   9.7363   9.8973

          k = 0.3333 0.3333 0.0000 ( 16953 PWs)   bands (ev):

    -8.9422  -8.9422  -8.9402  -8.9398  -8.9387  -8.9386  -8.9385  -8.9370
    -8.9364  -8.9357  -8.9133  -8.9132  -8.9130  -8.9128  -8.9127  -8.9052
    -8.9050  -8.9049  -8.9047  -8.9047  -8.8775  -8.8769  -8.8768  -8.8762
    -8.8761  -8.8732  -8.8730  -8.8729  -8.8726  -8.8726  -8.8359  -8.8356
    -8.8346  -8.8339  -8.8339  -8.8337  -8.8336  -8.8335  -8.8334  -8.8334
    -8.8315  -8.8313  -8.8303  -8.8297  -8.8292  -8.8284  -8.8282  -8.8281
    -8.8281  -8.8281  -5.7743  -5.6668  -5.6667  -5.3875  -5.3875  -4.9633
    -4.9329  -4.9328  -4.8838  -4.8838  -4.8812  -4.8811  -4.7613  -4.7292
    -4.7291  -4.6751  -4.6750  -4.5543  -4.5543  -4.4187  -0.4988  -0.4987
    -0.1503  -0.1503  -0.1498  -0.1497  -0.0906  -0.0905  -0.0574   0.1130
     0.2121   0.2121   0.6534   0.6534   0.7262   0.7262   1.0421   1.5209
     1.5210   2.0424   2.2076   2.6674   2.6674   2.7988   2.8631   3.1138
     3.1138   3.2046   3.2046   3.4391   3.4392   3.6122   3.6123   3.8763
     3.8763   3.9196   3.9437   3.9857   4.0599   4.1329   4.1329   4.1614
     4.1615   4.1724   4.1724   4.4148   4.4148   4.4717   4.4718   4.4863
     4.4863   4.6223   4.6223   4.9318   4.9318   4.9650   4.9650   5.2820
     5.2820   5.4223   7.4641   7.4642   7.9477   7.9477   8.1639   8.1640
     8.2515   8.4120   8.4121   8.5387   8.5388   8.5834   8.5835   8.9215
     8.9215   8.9490   9.0140   9.0140   9.2534   9.5058   9.7533  10.2064
    10.2065  10.2068  10.2069  10.3864

          k = 0.3333 0.3333 0.0667 ( 16938 PWs)   bands (ev):

    -8.9425  -8.9416  -8.9408  -8.9392  -8.9387  -8.9387  -8.9381  -8.9372
    -8.9360  -8.9357  -8.9134  -8.9132  -8.9130  -8.9129  -8.9127  -8.9051
    -8.9050  -8.9049  -8.9047  -8.9046  -8.8774  -8.8770  -8.8768  -8.8761
    -8.8760  -8.8733  -8.8731  -8.8730  -8.8727  -8.8726  -8.8357  -8.8355
    -8.8344  -8.8339  -8.8339  -8.8338  -8.8335  -8.8334  -8.8334  -8.8333
    -8.8315  -8.8313  -8.8302  -8.8298  -8.8293  -8.8283  -8.8283  -8.8282
    -8.8281  -8.8281  -5.7621  -5.7258  -5.5872  -5.4912  -5.3011  -4.9782
    -4.9595  -4.9489  -4.9141  -4.8957  -4.8731  -4.7656  -4.7572  -4.7459
    -4.7093  -4.6901  -4.6665  -4.6518  -4.4802  -4.4341  -0.5463  -0.4090
    -0.2872  -0.1624  -0.1408  -0.1140  -0.0746  -0.0397  -0.0191   0.0772
     0.1554   0.3211   0.4733   0.5862   0.8369   0.9513   0.9838   1.2242
     1.8113   2.0235   2.1985   2.3709   2.8610   2.8984   2.9910   3.0163
     3.0356   3.2402   3.3532   3.3799   3.4470   3.4859   3.5183   3.6599
     3.9702   4.0026   4.0317   4.0462   4.0526   4.0730   4.1108   4.2338
     4.2556   4.2896   4.2915   4.3012   4.3353   4.3575   4.4070   4.4575
     4.5236   4.5784   4.7057   4.8171   4.9022   5.0414   5.0600   5.1800
     5.3593   5.4071   7.4653   7.5579   7.6479   8.1517   8.1976   8.2063
     8.2291   8.2534   8.4939   8.5859   8.5953   8.6214   8.6869   8.8223
     8.8720   8.8986   8.9899   9.0198   9.2000   9.4036  10.0000  10.0302
    10.1324  10.2687  10.3394  10.4214

 ------ SPIN DOWN ----------


          k = 0.0000 0.0000 0.0000 ( 17017 PWs)   bands (ev):

    -8.9564  -8.9564  -8.9541  -8.9540  -8.9523  -8.9335  -8.9335  -8.9333
    -8.9333  -8.9319  -8.9319  -8.9313  -8.9313  -8.9310  -8.9310  -8.8789
    -8.8789  -8.8785  -8.8785  -8.8784  -8.8784  -8.8778  -8.8778  -8.8776
    -8.8776  -8.8518  -8.8517  -8.8516  -8.8515  -8.8515  -8.8449  -8.8446
    -8.8436  -8.8433  -8.8431  -8.8431  -8.8430  -8.8430  -8.8429  -8.8427
    -8.8282  -8.8282  -8.8271  -8.8261  -8.8258  -8.8222  -8.8220  -8.8220
    -8.8214  -8.8214  -6.5252  -6.3861  -6.3860  -6.0018  -6.0018  -5.2755
    -5.2755  -4.6145  -4.6145  -4.2632  -4.2604  -4.2604  -4.2446  -4.2446
    -4.2445  -4.2445  -4.2198  -4.2198  -4.2197  -4.2197  -0.8805  -0.8131
    -0.8130  -0.6893  -0.6892  -0.3483   0.1776   0.1777   0.2204   0.3019
     0.3019   0.4596   0.4596   1.3274   1.3274   2.4299   2.4299   2.6512
     2.6513   2.7463   2.7463   2.7464   2.7464   2.9502   2.9503   3.0787
     3.0788   3.0942   3.0942   3.0942   3.0942   3.0973   3.0973   3.3423
     3.3623   3.3623   3.3638   3.3638   3.3934   3.5170   3.5170   3.5170
     3.5170   3.9503   3.9503   3.9504   3.9504   4.6078   4.6078   4.7184
     4.7184   4.7184   4.7184   5.4818   5.4818   5.4819   5.4819   5.8162
     5.8978   5.8978   6.8916   7.2944   7.2944   7.3179   7.3231   7.3231
     7.4368   7.6951   7.6951   8.0182   8.0540   8.0540   8.0541   8.0541
     8.1281   8.1282   8.1339   8.1342   8.3660   8.5132   8.5134   8.5498
     8.5499   9.0074   9.0074   9.0340

          k = 0.0000 0.0000 0.0667 ( 17041 PWs)   bands (ev):

    -8.9570  -8.9557  -8.9549  -8.9532  -8.9525  -8.9336  -8.9336  -8.9332
    -8.9332  -8.9323  -8.9323  -8.9311  -8.9311  -8.9310  -8.9310  -8.8791
    -8.8791  -8.8786  -8.8786  -8.8784  -8.8784  -8.8778  -8.8778  -8.8776
    -8.8776  -8.8521  -8.8518  -8.8518  -8.8516  -8.8515  -8.8448  -8.8447
    -8.8436  -8.8435  -8.8433  -8.8432  -8.8431  -8.8430  -8.8427  -8.8426
    -8.8282  -8.8279  -8.8269  -8.8266  -8.8260  -8.8221  -8.8220  -8.8217
    -8.8216  -8.8215  -6.5096  -6.4629  -6.2806  -6.1499  -5.8674  -5.4471
    -5.0569  -4.8298  -4.4324  -4.3078  -4.2584  -4.2584  -4.2526  -4.2526
    -4.2356  -4.2356  -4.2269  -4.2269  -4.2160  -4.2160  -0.8724  -0.8489
    -0.7696  -0.7256  -0.6686  -0.2841  -0.1012   0.2301   0.2582   0.3557
     0.4118   0.4875   0.5262   0.9196   1.6699   2.3579   2.5646   2.5849
     2.6978   2.7000   2.7000   2.7462   2.7722   2.8348   2.8348   2.9296
     2.9559   2.9559   3.1444   3.2271   3.2271   3.2484   3.2883   3.3255
     3.3255   3.3548   3.3810   3.3810   3.4323   3.4323   3.5642   3.6338
     3.6338   3.7805   3.7805   4.0808   4.1148   4.1148   4.5102   4.5102
     4.9705   4.9705   5.1257   5.2312   5.2312   5.5871   5.6967   5.6967
     5.8442   5.8442   7.0284   7.1863   7.4074   7.4118   7.4118   7.4198
     7.5299   7.5421   7.6653   7.6653   7.7043   7.8128   7.8337   8.0678
     8.2326   8.3227   8.4081   8.4457   8.5475   8.5475   8.6708   8.6760
     8.6770   8.7954   8.9189   9.1052

          k = 0.0000 0.3333 0.0000 ( 17002 PWs)   bands (ev):

    -8.9460  -8.9460  -8.9438  -8.9438  -8.9427  -8.9347  -8.9346  -8.9330
    -8.9325  -8.9320  -8.9214  -8.9211  -8.9205  -8.9199  -8.9198  -8.8949
    -8.8943  -8.8942  -8.8937  -8.8934  -8.8792  -8.8789  -8.8788  -8.8784
    -8.8782  -8.8654  -8.8654  -8.8653  -8.8652  -8.8651  -8.8401  -8.8397
    -8.8387  -8.8381  -8.8377  -8.8374  -8.8374  -8.8372  -8.8371  -8.8371
    -8.8318  -8.8317  -8.8306  -8.8302  -8.8297  -8.8267  -8.8264  -8.8263
    -8.8263  -8.8263  -6.1305  -6.0030  -6.0029  -5.6559  -5.6559  -5.0891
    -5.0204  -5.0203  -5.0071  -5.0071  -4.8008  -4.8007  -4.4864  -4.4864
    -4.4864  -4.4863  -4.2962  -4.2962  -4.2282  -4.2263  -0.3322  -0.2921
    -0.2921  -0.2048  -0.2047  -0.1963   0.0835   0.0836   0.7127   0.7127
     0.7437   0.7438   1.0221   1.0221   1.1739   1.8789   1.8790   2.1116
     2.1116   2.1405   2.1405   2.5984   2.5984   2.6255   2.6256   2.6646
     2.6700   2.8345   2.8368   2.8655   2.8655   2.9849   2.9850   3.3437
     3.3437   3.3629   3.3629   3.5449   3.6534   3.6534   3.6753   3.6753
     3.7952   3.7997   3.8484   3.8485   4.0346   4.0346   4.1527   4.1528
     4.3165   4.3165   4.4878   4.4878   4.9323   4.9516   5.2651   5.2651
     5.3709   5.3709   7.5847   8.0861   8.0863   8.4414   8.4414   8.5507
     8.5845   8.5845   8.6575   8.7464   8.7465   8.8066   8.8066   9.1076
     9.1200   9.1490   9.2948   9.2949   9.3127   9.3128   9.5310   9.5311
     9.6866   9.6867   9.8188   9.8201

          k = 0.0000 0.3333 0.0667 ( 17008 PWs)   bands (ev):

    -8.9464  -8.9455  -8.9446  -8.9431  -8.9427  -8.9347  -8.9344  -8.9335
    -8.9324  -8.9321  -8.9213  -8.9211  -8.9206  -8.9199  -8.9198  -8.8949
    -8.8944  -8.8943  -8.8937  -8.8935  -8.8793  -8.8790  -8.8787  -8.8783
    -8.8783  -8.8655  -8.8654  -8.8653  -8.8653  -8.8652  -8.8399  -8.8397
    -8.8386  -8.8380  -8.8376  -8.8374  -8.8373  -8.8372  -8.8371  -8.8370
    -8.8318  -8.8315  -8.8306  -8.8302  -8.8297  -8.8265  -8.8265  -8.8264
    -8.8263  -8.8263  -6.1161  -6.0732  -5.9070  -5.7888  -5.5369  -5.1656
    -5.0797  -5.0520  -4.9476  -4.8768  -4.8387  -4.7362  -4.6547  -4.5483
    -4.4149  -4.3496  -4.3495  -4.2595  -4.2576  -4.2341  -0.3275  -0.3138
    -0.2642  -0.2332  -0.1869  -0.1627  -0.0661   0.2735   0.4897   0.6967
     0.8256   0.8894   0.9244   1.1028   1.1556   1.6646   2.0557   2.0643
     2.1749   2.2252   2.2831   2.3926   2.4834   2.4890   2.6149   2.6361
     2.7400   2.8360   2.8379   2.9177   3.0556   3.0653   3.0915   3.1545
     3.2265   3.3514   3.4430   3.4454   3.5821   3.6463   3.7401   3.8003
     3.8167   3.8899   3.9038   3.9292   3.9614   3.9833   4.0679   4.0984
     4.1660   4.2192   4.6524   4.7228   4.8887   5.0144   5.0185   5.1991
     5.4258   5.4605   7.6717   7.8975   8.1161   8.2102   8.5159   8.5616
     8.7024   8.7123   8.7196   8.7739   8.7798   8.9035   8.9931   9.0202
     9.0412   9.1078   9.1775   9.2061   9.2445   9.4046   9.4204   9.5404
     9.5500   9.6616   9.7363   9.8997

          k = 0.3333 0.3333 0.0000 ( 16953 PWs)   bands (ev):

    -8.9424  -8.9424  -8.9404  -8.9400  -8.9389  -8.9388  -8.9387  -8.9372
    -8.9366  -8.9360  -8.9135  -8.9134  -8.9132  -8.9130  -8.9130  -8.9054
    -8.9052  -8.9051  -8.9050  -8.9049  -8.8776  -8.8772  -8.8771  -8.8765
    -8.8763  -8.8734  -8.8732  -8.8731  -8.8728  -8.8728  -8.8361  -8.8358
    -8.8348  -8.8341  -8.8341  -8.8339  -8.8339  -8.8337  -8.8336  -8.8336
    -8.8318  -8.8315  -8.8305  -8.8298  -8.8295  -8.8286  -8.8284  -8.8283
    -8.8283  -8.8283  -5.7744  -5.6668  -5.6668  -5.3875  -5.3875  -4.9634
    -4.9329  -4.9328  -4.8838  -4.8838  -4.8812  -4.8811  -4.7613  -4.7292
    -4.7291  -4.6751  -4.6750  -4.5543  -4.5543  -4.4187  -0.4991  -0.4990
    -0.1506  -0.1505  -0.1500  -0.1499  -0.0908  -0.0908  -0.0577   0.1127
     0.2119   0.2119   0.6532   0.6532   0.7260   0.7261   1.0419   1.5208
     1.5208   2.0423   2.2074   2.6673   2.6673   2.7987   2.8629   3.1136
     3.1136   3.2045   3.2045   3.4390   3.4390   3.6121   3.6122   3.8762
     3.8762   3.9195   3.9436   3.9856   4.0598   4.1328   4.1329   4.1613
     4.1614   4.1723   4.1723   4.4147   4.4148   4.4717   4.4717   4.4862
     4.4862   4.6222   4.6222   4.9317   4.9317   4.9649   4.9649   5.2819
     5.2820   5.4222   7.4639   7.4639   7.9475   7.9475   8.1637   8.1637
     8.2513   8.4118   8.4119   8.5385   8.5385   8.5832   8.5833   8.9213
     8.9214   8.9488   9.0138   9.0139   9.2532   9.5055   9.7530  10.2062
    10.2063  10.2066  10.2066  10.3861

          k = 0.3333 0.3333 0.0667 ( 16938 PWs)   bands (ev):

    -8.9427  -8.9418  -8.9410  -8.9395  -8.9389  -8.9389  -8.9383  -8.9374
    -8.9362  -8.9359  -8.9136  -8.9135  -8.9133  -8.9131  -8.9130  -8.9053
    -8.9052  -8.9051  -8.9049  -8.9048  -8.8776  -8.8772  -8.8770  -8.8764
    -8.8763  -8.8735  -8.8733  -8.8732  -8.8729  -8.8728  -8.8359  -8.8357
    -8.8346  -8.8341  -8.8341  -8.8340  -8.8338  -8.8337  -8.8337  -8.8335
    -8.8317  -8.8315  -8.8304  -8.8300  -8.8295  -8.8285  -8.8285  -8.8284
    -8.8284  -8.8283  -5.7621  -5.7259  -5.5873  -5.4913  -5.3011  -4.9782
    -4.9595  -4.9489  -4.9141  -4.8957  -4.8731  -4.7656  -4.7571  -4.7459
    -4.7093  -4.6901  -4.6665  -4.6518  -4.4802  -4.4340  -0.5465  -0.4092
    -0.2875  -0.1627  -0.1411  -0.1143  -0.0749  -0.0400  -0.0193   0.0769
     0.1552   0.3209   0.4731   0.5861   0.8368   0.9511   0.9837   1.2240
     1.8111   2.0234   2.1984   2.3708   2.8610   2.8982   2.9909   3.0162
     3.0355   3.2401   3.3531   3.3798   3.4469   3.4857   3.5182   3.6598
     3.9700   4.0025   4.0316   4.0461   4.0526   4.0729   4.1107   4.2337
     4.2555   4.2895   4.2914   4.3011   4.3352   4.3574   4.4069   4.4574
     4.5235   4.5783   4.7056   4.8170   4.9021   5.0413   5.0600   5.1799
     5.3593   5.4070   7.4650   7.5577   7.6477   8.1515   8.1975   8.2061
     8.2289   8.2532   8.4937   8.5857   8.5951   8.6212   8.6867   8.8220
     8.8718   8.8985   8.9898   9.0196   9.1998   9.4034   9.9997  10.0300
    10.1322  10.2685  10.3392  10.4213

     the Fermi energy is     6.5651 ev

!    total energy              =   -6694.91930268 Ry

     total all-electron energy =   -134177.340891 Ry
     estimated scf accuracy    <       0.00000007 Ry
     smearing contrib. (-TS)   =      -0.00000000 Ry
     internal energy E=F+TS    =   -6694.91930268 Ry

     The total energy is F=E-TS. E is the sum of the following terms:
     one-electron contribution =   -1358.81477483 Ry
     hartree contribution      =     867.56994866 Ry
     xc contribution           =    -637.63111064 Ry
     ewald contribution        =    -988.23806912 Ry
     one-center paw contrib.   =   -4577.80529675 Ry

     total magnetization       =     0.00 Bohr mag/cell
     absolute magnetization    =     0.00 Bohr mag/cell

     convergence has been achieved in  15 iterations

     Forces acting on atoms (cartesian axes, Ry/au):

     atom    1 type  2   force =     0.00000003    0.00000003   -0.01921403
     atom    2 type  2   force =     0.00000002   -0.00000002    0.01920471
     atom    3 type  2   force =    -0.00000003   -0.00000003   -0.01921403
     atom    4 type  2   force =    -0.00000002    0.00000002    0.01920471
     atom    5 type  2   force =    -0.00000002   -0.00000002   -0.01920471
     atom    6 type  2   force =    -0.00000002   -0.00000002   -0.01920373
     atom    7 type  2   force =    -0.00000008   -0.00000008   -0.01920360
     atom    8 type  2   force =    -0.00000001   -0.00000001   -0.01921795
     atom    9 type  2   force =    -0.00000003    0.00000003    0.01921403
     atom   10 type  2   force =     0.00000002   -0.00000002    0.01920373
     atom   11 type  2   force =     0.00000001   -0.00000001    0.01921795
     atom   12 type  2   force =     0.00000008   -0.00000008    0.01920360
     atom   13 type  2   force =     0.00000002    0.00000002   -0.01920471
     atom   14 type  2   force =     0.00000002    0.00000002   -0.01920373
     atom   15 type  2   force =     0.00000008    0.00000008   -0.01920360
     atom   16 type  2   force =     0.00000001    0.00000001   -0.01921795
     atom   17 type  2   force =     0.00000003   -0.00000003    0.01921403
     atom   18 type  2   force =    -0.00000002    0.00000002    0.01920373
     atom   19 type  2   force =    -0.00000001    0.00000001    0.01921795
     atom   20 type  2   force =    -0.00000008    0.00000008    0.01920360
     atom   21 type  1   force =     0.00000000    0.00000000    0.00000000
     atom   22 type  1   force =     0.00000000    0.00000000    0.00000000
     atom   23 type  3   force =     0.00000000    0.00000000    0.00005415
     atom   24 type  3   force =     0.00000000    0.00000000    0.00005415
     atom   25 type  1   force =     0.00000000    0.00000000   -0.00000150
     atom   26 type  1   force =     0.00000000    0.00000000   -0.00000153
     atom   27 type  3   force =     0.00000000    0.00000000    0.00004756
     atom   28 type  3   force =     0.00000000    0.00000000    0.00004756
     atom   29 type  1   force =     0.00000000    0.00000000   -0.00000074
     atom   30 type  1   force =     0.00000000    0.00000000   -0.00000072
     atom   31 type  3   force =     0.00000000    0.00000000    0.00000000
     atom   32 type  3   force =     0.00000000    0.00000000    0.00000000
     atom   33 type  1   force =     0.00000000    0.00000000    0.00000074
     atom   34 type  1   force =     0.00000000    0.00000000    0.00000072
     atom   35 type  3   force =     0.00000000    0.00000000   -0.00004756
     atom   36 type  3   force =     0.00000000    0.00000000   -0.00004756
     atom   37 type  1   force =     0.00000000    0.00000000    0.00000150
     atom   38 type  1   force =     0.00000000    0.00000000    0.00000153
     atom   39 type  3   force =     0.00000000    0.00000000   -0.00005415
     atom   40 type  3   force =     0.00000000    0.00000000   -0.00005415

     Total force =     0.085904     Total SCF correction =     0.000238


     Computing stress (Cartesian axis) and pressure

          total   stress  (Ry/bohr**3)                   (kbar)     P=       35.34
   0.00024603   0.00000000   0.00000000           36.19        0.00        0.00
   0.00000000   0.00024603   0.00000000            0.00       36.19        0.00
   0.00000000   0.00000000   0.00022865            0.00        0.00       33.63


     Writing all to output data dir ./outputs/gaalas_sl.save/

     init_run     :     51.13s CPU     16.11s WALL (       1 calls)
     electrons    :   1740.05s CPU   1818.19s WALL (       1 calls)
     forces       :     27.36s CPU     64.78s WALL (       1 calls)
     stress       :     85.08s CPU     72.14s WALL (       1 calls)

     Called by init_run:
     wfcinit      :     44.34s CPU      3.83s WALL (       1 calls)
     potinit      :      5.75s CPU      7.77s WALL (       1 calls)
     hinit0       :      1.00s CPU      1.74s WALL (       1 calls)

     Called by electrons:
     c_bands      :   1440.98s CPU   1470.86s WALL (      15 calls)
     sum_band     :    185.59s CPU    182.20s WALL (      15 calls)
     v_of_rho     :      3.39s CPU      3.77s WALL (      16 calls)
     newd         :     11.33s CPU     34.71s WALL (      16 calls)
     PAW_pot      :    103.42s CPU    135.54s WALL (      16 calls)
     mix_rho      :      0.80s CPU      0.87s WALL (      15 calls)

     Called by c_bands:
     init_us_2    :      6.16s CPU      6.89s WALL (     396 calls)
     init_us_2:cp :      6.16s CPU      6.89s WALL (     396 calls)
     cegterg      :   1415.56s CPU   1461.97s WALL (     180 calls)

     Called by *egterg:
     cdiaghg      :     86.35s CPU     55.81s WALL (     949 calls)
     h_psi        :    743.09s CPU    850.86s WALL (     961 calls)
     s_psi        :    220.90s CPU    177.53s WALL (     961 calls)
     g_psi        :      4.60s CPU    -11.31s WALL (     769 calls)

     Called by h_psi:
     h_psi:calbec :    224.18s CPU    262.35s WALL (     961 calls)
     vloc_psi     :    294.44s CPU    367.88s WALL (     961 calls)
     add_vuspsi   :    220.09s CPU    230.93s WALL (     961 calls)

     General routines
     calbec       :    346.20s CPU    428.85s WALL (    1201 calls)
     fft          :      1.66s CPU      2.07s WALL (     378 calls)
     ffts         :      0.10s CPU      0.10s WALL (      30 calls)
     fftw         :    303.33s CPU    409.68s WALL (  164102 calls)

     Parallel routines

     PWSCF        :  31m44.40s CPU  32m52.76s WALL


   This run was terminated on:  20:15:27   5Jan2025            

=------------------------------------------------------------------------------=
   JOB DONE.
=------------------------------------------------------------------------------=
