
     Program BANDS v.7.0 starts on 19Dec2024 at  4:48:29 

     This program is part of the open-source Quantum ESPRESSO suite
     for quantum simulation of materials; please cite
         "P. Giannozzi et al., J. Phys.:Condens. Matter 21 395502 (2009);
         "P. Giannozzi et al., J. Phys.:Condens. Matter 29 465901 (2017);
         "P. Giannozzi et al., J. Chem. Phys. 152 154105 (2020);
          URL http://www.quantum-espresso.org", 
     in publications or presentations arising from this work. More details at
     http://www.quantum-espresso.org/quote

     Parallel version (MPI & OpenMP), running on       2 processor cores
     Number of MPI processes:                 1
     Threads/MPI process:                     2

     MPI processes distributed on     1 nodes
     146 MiB available memory on the printing compute node when the environment starts


     Reading xml data from directory:

     ./outputs/inp.save/
     file P.pbe-n-kjpaw_psl.1.0.0.UPF: wavefunction(s)  3S 3P renormalized
     file In.pbe-dn-kjpaw_psl.1.0.0.UPF: wavefunction(s)  5S 5P 4D renormalized

     IMPORTANT: XC functional enforced from input :
     Exchange-correlation= PBE
                           (   1   4   3   4   0   0   0)
     Any further DFT definition will be discarded
     Please, verify this is what you really want


     G-vector sticks info
     --------------------
     sticks:   dense  smooth     PW     G-vecs:    dense   smooth      PW
     Sum         859     859    253                16889    16889    2733

     Using Slab Decomposition


     Check: negative core charge=   -0.000004
     Reading collected, re-writing distributed wavefunctions
     high-symmetry point:  0.0000 0.0000 0.0000   x coordinate   0.0000
     high-symmetry point:  0.5000-0.2887 0.4082   x coordinate   0.7071
     high-symmetry point:  0.5000 0.0000 0.6124   x coordinate   1.0607
     high-symmetry point:  0.3750 0.2165 0.6001   x coordinate   1.3110
     high-symmetry point:  0.0000 0.0000 0.0000   x coordinate   2.0510
     high-symmetry point:  0.5000 0.2887 0.2041   x coordinate   2.6634
     high-symmetry point:  0.6250-0.0722 0.4082   x coordinate   3.0964
     high-symmetry point:  0.5000 0.0000 0.6124   x coordinate   3.3464
     high-symmetry point:  0.5000 0.2887 0.2041   x coordinate   3.8464
     high-symmetry point:  0.3750 0.2165 0.6001   x coordinate   4.2679
     high-symmetry point:  0.5000-0.2887 0.4082   x coordinate   4.8225

     Plottable bands (eV) written to file inpbands.dat.gnu
     Bands written to file inpbands.dat

 **************************************************************************

                    xk=(   0.00000,   0.00000,   0.00000  )

     point group C_3v (3m)  
     there are  3 classes
     the character table:

       E     2C3   3s_v 
A_1    1.00  1.00  1.00
A_2    1.00  1.00 -1.00
E      2.00 -1.00  0.00

     the symmetry operations in each class and the name of the first element:

     E        1
                                                                 
     2C3      2    3
                                                                 
     3s_v     4    5    6
                                                                 

     Band symmetry, C_3v (3m)   point group:

     e(  1 -  3) =     -7.68564  eV     3   --> A_1  L_1       
     e(  1 -  3) =     -7.68564  eV     3   --> E    L_3       
     e(  4 -  5) =     -7.55870  eV     2   --> E    L_3       
     e(  6 -  6) =     -4.76828  eV     1   --> A_1  L_1       
     e(  7 -  9) =      6.43696  eV     3   --> A_1  L_1       
     e(  7 -  9) =      6.43696  eV     3   --> E    L_3       
     e( 10 - 10) =      6.87949  eV     1   --> A_1  L_1       
     e( 11 - 13) =     10.51423  eV     3   --> A_1  L_1       
     e( 11 - 13) =     10.51423  eV     3   --> E    L_3       
     e( 14 - 14) =     14.80008  eV     1   --> A_1  L_1       
     e( 15 - 16) =     15.78206  eV     2   --> E    L_3       

 **************************************************************************

 **************************************************************************

                    xk=(   0.01667,  -0.00962,   0.01361  )

     point group C_s (m)    
     there are  2 classes
     the character table:

       E     s    
A'     1.00  1.00
A''    1.00 -1.00

     the symmetry operations in each class and the name of the first element:

     E        1
                                                                 
     s        2
                                                                 

     Band symmetry, C_s (m)     point group:

     e(  1 -  1) =     -7.68616  eV     1   --> A'             
     e(  2 -  3) =     -7.68537  eV     2   --> A'             
     e(  2 -  3) =     -7.68537  eV     2   --> A''            
     e(  4 -  5) =     -7.55862  eV     2   --> A'             
     e(  4 -  5) =     -7.55862  eV     2   --> A''            
     e(  6 -  6) =     -4.76432  eV     1   --> A'             
     e(  7 -  7) =      6.33050  eV     1   --> A'             
     e(  8 -  9) =      6.42675  eV     2   --> A'             
     e(  8 -  9) =      6.42675  eV     2   --> A''            
     e( 10 - 10) =      6.98558  eV     1   --> A'             
     e( 11 - 11) =     10.49994  eV     1   --> A'             
     e( 12 - 13) =     10.52820  eV     2   --> A'             
     e( 12 - 13) =     10.52820  eV     2   --> A''            
     e( 14 - 14) =     14.82362  eV     1   --> A'             
     e( 15 - 15) =     15.72862  eV     1   --> A'             
     e( 16 - 16) =     15.78475  eV     1   --> A''            

 **************************************************************************

 **************************************************************************

                    xk=(   0.03333,  -0.01925,   0.02722  )

     Band symmetry, C_s (m)     point group:

     e(  1 -  1) =     -7.68770  eV     1   --> A'             
     e(  2 -  3) =     -7.68464  eV     2   --> A'             
     e(  2 -  3) =     -7.68464  eV     2   --> A''            
     e(  4 -  4) =     -7.55882  eV     1   --> A'             
     e(  5 -  5) =     -7.55822  eV     1   --> A''            
     e(  6 -  6) =     -4.75244  eV     1   --> A'             
     e(  7 -  7) =      6.12662  eV     1   --> A'             
     e(  8 -  9) =      6.39662  eV     2   --> A'             
     e(  8 -  9) =      6.39662  eV     2   --> A''            
     e( 10 - 10) =      7.18824  eV     1   --> A'             
     e( 11 - 11) =     10.45810  eV     1   --> A'             
     e( 12 - 13) =     10.56962  eV     2   --> A'             
     e( 12 - 13) =     10.56962  eV     2   --> A''            
     e( 14 - 14) =     14.89284  eV     1   --> A'             
     e( 15 - 15) =     15.58341  eV     1   --> A'             
     e( 16 - 16) =     15.79282  eV     1   --> A''            

 **************************************************************************

 **************************************************************************

                    xk=(   0.05000,  -0.02887,   0.04082  )

     Band symmetry, C_s (m)     point group:

     e(  1 -  1) =     -7.69025  eV     1   --> A'             
     e(  2 -  3) =     -7.68350  eV     2   --> A'             
     e(  2 -  3) =     -7.68350  eV     2   --> A''            
     e(  4 -  4) =     -7.55925  eV     1   --> A'             
     e(  5 -  5) =     -7.55782  eV     1   --> A''            
     e(  6 -  6) =     -4.73268  eV     1   --> A'             
     e(  7 -  7) =      5.90061  eV     1   --> A'             
     e(  8 -  9) =      6.34793  eV     2   --> A'             
     e(  8 -  9) =      6.34793  eV     2   --> A''            
     e( 10 - 10) =      7.41173  eV     1   --> A'             
     e( 11 - 11) =     10.39155  eV     1   --> A'             
     e( 12 - 13) =     10.63715  eV     2   --> A'             
     e( 12 - 13) =     10.63715  eV     2   --> A''            
     e( 14 - 14) =     15.00248  eV     1   --> A'             
     e( 15 - 15) =     15.37940  eV     1   --> A'             
     e( 16 - 16) =     15.80621  eV     1   --> A''            

 **************************************************************************

 **************************************************************************

                    xk=(   0.06667,  -0.03849,   0.05443  )

     Band symmetry, C_s (m)     point group:

     e(  1 -  1) =     -7.69374  eV     1   --> A'             
     e(  2 -  3) =     -7.68192  eV     2   --> A'             
     e(  2 -  3) =     -7.68192  eV     2   --> A''            
     e(  4 -  4) =     -7.55986  eV     1   --> A'             
     e(  5 -  5) =     -7.55727  eV     1   --> A''            
     e(  6 -  6) =     -4.70513  eV     1   --> A'             
     e(  7 -  7) =      5.66804  eV     1   --> A'             
     e(  8 -  9) =      6.28273  eV     2   --> A'             
     e(  8 -  9) =      6.28273  eV     2   --> A''            
     e( 10 - 10) =      7.63976  eV     1   --> A'             
     e( 11 - 11) =     10.30434  eV     1   --> A'             
     e( 12 - 13) =     10.72875  eV     2   --> A'             
     e( 12 - 13) =     10.72875  eV     2   --> A''            
     e( 14 - 14) =     15.08324  eV     1   --> A'             
     e( 15 - 15) =     15.20910  eV     1   --> A'             
     e( 16 - 16) =     15.82490  eV     1   --> A''            

 **************************************************************************

 **************************************************************************

                    xk=(   0.08333,  -0.04811,   0.06804  )

     Band symmetry, C_s (m)     point group:

     e(  1 -  1) =     -7.69812  eV     1   --> A'             
     e(  2 -  3) =     -7.68018  eV     2   --> A'             
     e(  2 -  3) =     -7.68018  eV     2   --> A''            
     e(  4 -  4) =     -7.56103  eV     1   --> A'             
     e(  5 -  5) =     -7.55667  eV     1   --> A''            
     e(  6 -  6) =     -4.66989  eV     1   --> A'             
     e(  7 -  7) =      5.43321  eV     1   --> A'             
     e(  8 -  9) =      6.20344  eV     2   --> A'             
     e(  8 -  9) =      6.20344  eV     2   --> A''            
     e( 10 - 10) =      7.86696  eV     1   --> A'             
     e( 11 - 11) =     10.20098  eV     1   --> A'             
     e( 12 - 13) =     10.84200  eV     2   --> A'             
     e( 12 - 13) =     10.84200  eV     2   --> A''            
     e( 14 - 14) =     14.86067  eV     1   --> A'             
     e( 15 - 15) =     15.36138  eV     1   --> A'             
     e( 16 - 16) =     15.84884  eV     1   --> A''            

 **************************************************************************

 **************************************************************************

                    xk=(   0.10000,  -0.05774,   0.08165  )

     Band symmetry, C_s (m)     point group:

     e(  1 -  1) =     -7.70330  eV     1   --> A'             
     e(  2 -  3) =     -7.67786  eV     2   --> A'             
     e(  2 -  3) =     -7.67786  eV     2   --> A''            
     e(  4 -  4) =     -7.56205  eV     1   --> A'             
     e(  5 -  5) =     -7.55586  eV     1   --> A''            
     e(  6 -  6) =     -4.62707  eV     1   --> A'             
     e(  7 -  7) =      5.19778  eV     1   --> A'             
     e(  8 -  9) =      6.11267  eV     2   --> A'             
     e(  8 -  9) =      6.11267  eV     2   --> A''            
     e( 10 - 10) =      8.09017  eV     1   --> A'             
     e( 11 - 11) =     10.08596  eV     1   --> A'             
     e( 12 - 13) =     10.97435  eV     2   --> A'             
     e( 12 - 13) =     10.97435  eV     2   --> A''            
     e( 14 - 14) =     14.60312  eV     1   --> A'             
     e( 15 - 15) =     15.57602  eV     1   --> A'             
     e( 16 - 16) =     15.87796  eV     1   --> A''            

 **************************************************************************

 **************************************************************************

                    xk=(   0.11667,  -0.06736,   0.09526  )

     Band symmetry, C_s (m)     point group:

     e(  1 -  1) =     -7.70932  eV     1   --> A'             
     e(  2 -  3) =     -7.67533  eV     2   --> A'             
     e(  2 -  3) =     -7.67533  eV     2   --> A''            
     e(  4 -  4) =     -7.56320  eV     1   --> A'             
     e(  5 -  5) =     -7.55498  eV     1   --> A''            
     e(  6 -  6) =     -4.57686  eV     1   --> A'             
     e(  7 -  7) =      4.96251  eV     1   --> A'             
     e(  8 -  9) =      6.01295  eV     2   --> A'             
     e(  8 -  9) =      6.01295  eV     2   --> A''            
     e( 10 - 10) =      8.30659  eV     1   --> A'             
     e( 11 - 11) =      9.96338  eV     1   --> A'             
     e( 12 - 13) =     11.12331  eV     2   --> A'             
     e( 12 - 13) =     11.12331  eV     2   --> A''            
     e( 14 - 14) =     14.34999  eV     1   --> A'             
     e( 15 - 15) =     15.81836  eV     1   --> A'             
     e( 16 - 16) =     15.91218  eV     1   --> A''            

 **************************************************************************

 **************************************************************************

                    xk=(   0.13333,  -0.07698,   0.10887  )

     Band symmetry, C_s (m)     point group:

     e(  1 -  1) =     -7.71582  eV     1   --> A'             
     e(  2 -  3) =     -7.67204  eV     2   --> A'             
     e(  2 -  3) =     -7.67204  eV     2   --> A''            
     e(  4 -  4) =     -7.56428  eV     1   --> A'             
     e(  5 -  5) =     -7.55389  eV     1   --> A''            
     e(  6 -  6) =     -4.51941  eV     1   --> A'             
     e(  7 -  7) =      4.72789  eV     1   --> A'             
     e(  8 -  9) =      5.90665  eV     2   --> A'             
     e(  8 -  9) =      5.90665  eV     2   --> A''            
     e( 10 - 10) =      8.51311  eV     1   --> A'             
     e( 11 - 11) =      9.83689  eV     1   --> A'             
     e( 12 - 13) =     11.28659  eV     2   --> A'             
     e( 12 - 13) =     11.28659  eV     2   --> A''            
     e( 14 - 14) =     14.11023  eV     1   --> A'             
     e( 15 - 15) =     15.95138  eV     1   --> A''            
     e( 16 - 16) =     16.08259  eV     1   --> A'             

 **************************************************************************

 **************************************************************************

                    xk=(   0.15000,  -0.08660,   0.12247  )

     Band symmetry, C_s (m)     point group:

     e(  1 -  1) =     -7.72278  eV     1   --> A'             
     e(  2 -  3) =     -7.66837  eV     2   --> A'             
     e(  2 -  3) =     -7.66837  eV     2   --> A''            
     e(  4 -  4) =     -7.56572  eV     1   --> A'             
     e(  5 -  5) =     -7.55268  eV     1   --> A''            
     e(  6 -  6) =     -4.45495  eV     1   --> A'             
     e(  7 -  7) =      4.49421  eV     1   --> A'             
     e(  8 -  9) =      5.79587  eV     2   --> A'             
     e(  8 -  9) =      5.79587  eV     2   --> A''            
     e( 10 - 10) =      8.70584  eV     1   --> A'             
     e( 11 - 11) =      9.70989  eV     1   --> A'             
     e( 12 - 13) =     11.46216  eV     2   --> A'             
     e( 12 - 13) =     11.46216  eV     2   --> A''            
     e( 14 - 14) =     13.89046  eV     1   --> A'             
     e( 15 - 15) =     15.99542  eV     1   --> A''            
     e( 16 - 16) =     16.36456  eV     1   --> A'             

 **************************************************************************

 **************************************************************************

                    xk=(   0.16667,  -0.09623,   0.13608  )

     Band symmetry, C_s (m)     point group:

     e(  1 -  1) =     -7.73034  eV     1   --> A'             
     e(  2 -  3) =     -7.66466  eV     2   --> A'             
     e(  2 -  3) =     -7.66466  eV     2   --> A''            
     e(  4 -  4) =     -7.56739  eV     1   --> A'             
     e(  5 -  5) =     -7.55139  eV     1   --> A''            
     e(  6 -  6) =     -4.38373  eV     1   --> A'             
     e(  7 -  7) =      4.26169  eV     1   --> A'             
     e(  8 -  9) =      5.68244  eV     2   --> A'             
     e(  8 -  9) =      5.68244  eV     2   --> A''            
     e( 10 - 10) =      8.87953  eV     1   --> A'             
     e( 11 - 11) =      9.58605  eV     1   --> A'             
     e( 12 - 13) =     11.64824  eV     2   --> A'             
     e( 12 - 13) =     11.64824  eV     2   --> A''            
     e( 14 - 14) =     13.69671  eV     1   --> A'             
     e( 15 - 15) =     16.04414  eV     1   --> A''            
     e( 16 - 16) =     16.66055  eV     1   --> A'             

 **************************************************************************

 **************************************************************************

                    xk=(   0.18333,  -0.10585,   0.14969  )

     Band symmetry, C_s (m)     point group:

     e(  1 -  1) =     -7.73810  eV     1   --> A'             
     e(  2 -  3) =     -7.66062  eV     2   --> A'             
     e(  2 -  3) =     -7.66062  eV     2   --> A''            
     e(  4 -  4) =     -7.56897  eV     1   --> A'             
     e(  5 -  5) =     -7.55002  eV     1   --> A''            
     e(  6 -  6) =     -4.30602  eV     1   --> A'             
     e(  7 -  7) =      4.03059  eV     1   --> A'             
     e(  8 -  9) =      5.56800  eV     2   --> A'             
     e(  8 -  9) =      5.56800  eV     2   --> A''            
     e( 10 - 10) =      9.02555  eV     1   --> A'             
     e( 11 - 11) =      9.47149  eV     1   --> A'             
     e( 12 - 13) =     11.84333  eV     2   --> A'             
     e( 12 - 13) =     11.84333  eV     2   --> A''            
     e( 14 - 14) =     13.53481  eV     1   --> A'             
     e( 15 - 15) =     16.09733  eV     1   --> A''            
     e( 16 - 16) =     16.96696  eV     1   --> A'             

 **************************************************************************

 **************************************************************************

                    xk=(   0.20000,  -0.11547,   0.16330  )

     Band symmetry, C_s (m)     point group:

     e(  1 -  1) =     -7.74598  eV     1   --> A'             
     e(  2 -  3) =     -7.65642  eV     2   --> A'             
     e(  2 -  3) =     -7.65642  eV     2   --> A''            
     e(  4 -  4) =     -7.57096  eV     1   --> A'             
     e(  5 -  5) =     -7.54858  eV     1   --> A''            
     e(  6 -  6) =     -4.22213  eV     1   --> A'             
     e(  7 -  7) =      3.80113  eV     1   --> A'             
     e(  8 -  9) =      5.45390  eV     2   --> A'             
     e(  8 -  9) =      5.45390  eV     2   --> A''            
     e( 10 - 10) =      9.12216  eV     1   --> A'             
     e( 11 - 11) =      9.38487  eV     1   --> A'             
     e( 12 - 13) =     12.04618  eV     2   --> A'             
     e( 12 - 13) =     12.04618  eV     2   --> A''            
     e( 14 - 14) =     13.41024  eV     1   --> A'             
     e( 15 - 15) =     16.15477  eV     1   --> A''            
     e( 16 - 16) =     17.28000  eV     1   --> A'             

 **************************************************************************

 **************************************************************************

                    xk=(   0.21667,  -0.12509,   0.17691  )

     Band symmetry, C_s (m)     point group:

     e(  1 -  1) =     -7.75404  eV     1   --> A'             
     e(  2 -  3) =     -7.65186  eV     2   --> A'             
     e(  2 -  3) =     -7.65186  eV     2   --> A''            
     e(  4 -  4) =     -7.57312  eV     1   --> A'             
     e(  5 -  5) =     -7.54709  eV     1   --> A''            
     e(  6 -  6) =     -4.13241  eV     1   --> A'             
     e(  7 -  7) =      3.57358  eV     1   --> A'             
     e(  8 -  9) =      5.34134  eV     2   --> A'             
     e(  8 -  9) =      5.34134  eV     2   --> A''            
     e( 10 - 10) =      9.12014  eV     1   --> A'             
     e( 11 - 11) =      9.37237  eV     1   --> A'             
     e( 12 - 13) =     12.25573  eV     2   --> A'             
     e( 12 - 13) =     12.25573  eV     2   --> A''            
     e( 14 - 14) =     13.32779  eV     1   --> A'             
     e( 15 - 15) =     16.21616  eV     1   --> A''            
     e( 16 - 16) =     17.59551  eV     1   --> A'             

 **************************************************************************

 **************************************************************************

                    xk=(   0.23333,  -0.13472,   0.19052  )

     Band symmetry, C_s (m)     point group:

     e(  1 -  1) =     -7.76217  eV     1   --> A'             
     e(  2 -  3) =     -7.64735  eV     2   --> A'             
     e(  2 -  3) =     -7.64735  eV     2   --> A''            
     e(  4 -  4) =     -7.57525  eV     1   --> A'             
     e(  5 -  5) =     -7.54556  eV     1   --> A''            
     e(  6 -  6) =     -4.03728  eV     1   --> A'             
     e(  7 -  7) =      3.34831  eV     1   --> A'             
     e(  8 -  9) =      5.23131  eV     2   --> A'             
     e(  8 -  9) =      5.23131  eV     2   --> A''            
     e( 10 - 10) =      9.04246  eV     1   --> A'             
     e( 11 - 11) =      9.40900  eV     1   --> A'             
     e( 12 - 13) =     12.47106  eV     2   --> A'             
     e( 12 - 13) =     12.47106  eV     2   --> A''            
     e( 14 - 14) =     13.29070  eV     1   --> A'             
     e( 15 - 15) =     16.28116  eV     1   --> A''            
     e( 16 - 16) =     17.90884  eV     1   --> A'             

 **************************************************************************

 **************************************************************************

                    xk=(   0.25000,  -0.14434,   0.20412  )

     Band symmetry, C_s (m)     point group:

     e(  1 -  1) =     -7.77032  eV     1   --> A'             
     e(  2 -  3) =     -7.64327  eV     2   --> A'             
     e(  2 -  3) =     -7.64327  eV     2   --> A''            
     e(  4 -  4) =     -7.57774  eV     1   --> A'             
     e(  5 -  5) =     -7.54451  eV     1   --> A''            
     e(  6 -  6) =     -3.93721  eV     1   --> A'             
     e(  7 -  7) =      3.12569  eV     1   --> A'             
     e(  8 -  9) =      5.12467  eV     2   --> A'             
     e(  8 -  9) =      5.12467  eV     2   --> A''            
     e( 10 - 10) =      8.94827  eV     1   --> A'             
     e( 11 - 11) =      9.43545  eV     1   --> A'             
     e( 12 - 13) =     12.69143  eV     2   --> A'             
     e( 12 - 13) =     12.69143  eV     2   --> A''            
     e( 14 - 14) =     13.29985  eV     1   --> A'             
     e( 15 - 15) =     16.34936  eV     1   --> A''            
     e( 16 - 16) =     18.21490  eV     1   --> A'             

 **************************************************************************

 **************************************************************************

                    xk=(   0.26667,  -0.15396,   0.21773  )

     Band symmetry, C_s (m)     point group:

     e(  1 -  1) =     -7.77796  eV     1   --> A'             
     e(  2 -  3) =     -7.63842  eV     2   --> A'             
     e(  2 -  3) =     -7.63842  eV     2   --> A''            
     e(  4 -  4) =     -7.57967  eV     1   --> A'             
     e(  5 -  5) =     -7.54276  eV     1   --> A''            
     e(  6 -  6) =     -3.83271  eV     1   --> A'             
     e(  7 -  7) =      2.90628  eV     1   --> A'             
     e(  8 -  9) =      5.02220  eV     2   --> A'             
     e(  8 -  9) =      5.02220  eV     2   --> A''            
     e( 10 - 10) =      8.85461  eV     1   --> A'             
     e( 11 - 11) =      9.43689  eV     1   --> A'             
     e( 12 - 13) =     12.91620  eV     2   --> A'             
     e( 12 - 13) =     12.91620  eV     2   --> A''            
     e( 14 - 14) =     13.35344  eV     1   --> A'             
     e( 15 - 15) =     16.42034  eV     1   --> A''            
     e( 16 - 16) =     18.50853  eV     1   --> A'             

 **************************************************************************

 **************************************************************************

                    xk=(   0.28333,  -0.16358,   0.23134  )

     Band symmetry, C_s (m)     point group:

     e(  1 -  1) =     -7.78567  eV     1   --> A'             
     e(  2 -  3) =     -7.63385  eV     2   --> A'             
     e(  2 -  3) =     -7.63385  eV     2   --> A''            
     e(  4 -  4) =     -7.58191  eV     1   --> A'             
     e(  5 -  5) =     -7.54123  eV     1   --> A''            
     e(  6 -  6) =     -3.72445  eV     1   --> A'             
     e(  7 -  7) =      2.69065  eV     1   --> A'             
     e(  8 -  9) =      4.92453  eV     2   --> A'             
     e(  8 -  9) =      4.92453  eV     2   --> A''            
     e( 10 - 10) =      8.76594  eV     1   --> A'             
     e( 11 - 11) =      9.41321  eV     1   --> A'             
     e( 12 - 13) =     13.14472  eV     2   --> A'             
     e( 12 - 13) =     13.14472  eV     2   --> A''            
     e( 14 - 14) =     13.44708  eV     1   --> A'             
     e( 15 - 15) =     16.49349  eV     1   --> A''            
     e( 16 - 16) =     18.78508  eV     1   --> A'             

 **************************************************************************

 **************************************************************************

                    xk=(   0.30000,  -0.17321,   0.24495  )

     Band symmetry, C_s (m)     point group:

     e(  1 -  1) =     -7.79313  eV     1   --> A'             
     e(  2 -  3) =     -7.62935  eV     2   --> A'             
     e(  2 -  3) =     -7.62935  eV     2   --> A''            
     e(  4 -  4) =     -7.58385  eV     1   --> A'             
     e(  5 -  5) =     -7.53974  eV     1   --> A''            
     e(  6 -  6) =     -3.61316  eV     1   --> A'             
     e(  7 -  7) =      2.47957  eV     1   --> A'             
     e(  8 -  9) =      4.83222  eV     2   --> A'             
     e(  8 -  9) =      4.83222  eV     2   --> A''            
     e( 10 - 10) =      8.68392  eV     1   --> A'             
     e( 11 - 11) =      9.36842  eV     1   --> A'             
     e( 12 - 13) =     13.37643  eV     2   --> A'             
     e( 12 - 13) =     13.37643  eV     2   --> A''            
     e( 14 - 14) =     13.57474  eV     1   --> A'             
     e( 15 - 15) =     16.56817  eV     1   --> A''            
     e( 16 - 16) =     19.04080  eV     1   --> A'             

 **************************************************************************

 **************************************************************************

                    xk=(   0.31667,  -0.18283,   0.25856  )

     Band symmetry, C_s (m)     point group:

     e(  1 -  1) =     -7.80023  eV     1   --> A'             
     e(  2 -  3) =     -7.62519  eV     2   --> A'             
     e(  2 -  3) =     -7.62519  eV     2   --> A''            
     e(  4 -  4) =     -7.58604  eV     1   --> A'             
     e(  5 -  5) =     -7.53838  eV     1   --> A''            
     e(  6 -  6) =     -3.49973  eV     1   --> A'             
     e(  7 -  7) =      2.27394  eV     1   --> A'             
     e(  8 -  9) =      4.74574  eV     2   --> A'             
     e(  8 -  9) =      4.74574  eV     2   --> A''            
     e( 10 - 10) =      8.60934  eV     1   --> A'             
     e( 11 - 11) =      9.30783  eV     1   --> A'             
     e( 12 - 13) =     13.61068  eV     2   --> A'             
     e( 12 - 13) =     13.61068  eV     2   --> A''            
     e( 14 - 14) =     13.72959  eV     1   --> A'             
     e( 15 - 15) =     16.64363  eV     1   --> A''            
     e( 16 - 16) =     19.27231  eV     1   --> A'             

 **************************************************************************

 **************************************************************************

                    xk=(   0.33333,  -0.19245,   0.27217  )

     Band symmetry, C_s (m)     point group:

     e(  1 -  1) =     -7.80689  eV     1   --> A'             
     e(  2 -  3) =     -7.62108  eV     2   --> A'             
     e(  2 -  3) =     -7.62108  eV     2   --> A''            
     e(  4 -  4) =     -7.58826  eV     1   --> A'             
     e(  5 -  5) =     -7.53700  eV     1   --> A''            
     e(  6 -  6) =     -3.38523  eV     1   --> A'             
     e(  7 -  7) =      2.07489  eV     1   --> A'             
     e(  8 -  9) =      4.66554  eV     2   --> A'             
     e(  8 -  9) =      4.66554  eV     2   --> A''            
     e( 10 - 10) =      8.54262  eV     1   --> A'             
     e( 11 - 11) =      9.23674  eV     1   --> A'             
     e( 12 - 13) =     13.84677  eV     2   --> A'             
     e( 12 - 13) =     13.84677  eV     2   --> A''            
     e( 14 - 14) =     13.90483  eV     1   --> A'             
     e( 15 - 15) =     16.71899  eV     1   --> A''            
     e( 16 - 16) =     19.47511  eV     1   --> A'             

 **************************************************************************

 **************************************************************************

                    xk=(   0.35000,  -0.20207,   0.28577  )

     Band symmetry, C_s (m)     point group:

     e(  1 -  1) =     -7.81284  eV     1   --> A'             
     e(  2 -  3) =     -7.61697  eV     2   --> A'             
     e(  2 -  3) =     -7.61697  eV     2   --> A''            
     e(  4 -  4) =     -7.59006  eV     1   --> A'             
     e(  5 -  5) =     -7.53534  eV     1   --> A''            
     e(  6 -  6) =     -3.27091  eV     1   --> A'             
     e(  7 -  7) =      1.88374  eV     1   --> A'             
     e(  8 -  9) =      4.59198  eV     2   --> A'             
     e(  8 -  9) =      4.59198  eV     2   --> A''            
     e( 10 - 10) =      8.48395  eV     1   --> A'             
     e( 11 - 11) =      9.15992  eV     1   --> A'             
     e( 12 - 13) =     14.08381  eV     2   --> A'             
     e( 12 - 13) =     14.08381  eV     2   --> A''            
     e( 14 - 14) =     14.09393  eV     1   --> A'             
     e( 15 - 15) =     16.79330  eV     1   --> A''            
     e( 16 - 16) =     19.64176  eV     1   --> A'             

 **************************************************************************

 **************************************************************************

                    xk=(   0.36667,  -0.21170,   0.29938  )

     Band symmetry, C_s (m)     point group:

     e(  1 -  1) =     -7.81850  eV     1   --> A'             
     e(  2 -  3) =     -7.61335  eV     2   --> A'             
     e(  2 -  3) =     -7.61335  eV     2   --> A''            
     e(  4 -  4) =     -7.59236  eV     1   --> A'             
     e(  5 -  5) =     -7.53415  eV     1   --> A''            
     e(  6 -  6) =     -3.15832  eV     1   --> A'             
     e(  7 -  7) =      1.70208  eV     1   --> A'             
     e(  8 -  9) =      4.52536  eV     2   --> A'             
     e(  8 -  9) =      4.52536  eV     2   --> A''            
     e( 10 - 10) =      8.43337  eV     1   --> A'             
     e( 11 - 11) =      9.08136  eV     1   --> A'             
     e( 12 - 12) =     14.29073  eV     1   --> A'             
     e( 13 - 14) =     14.32056  eV     2   --> A'             
     e( 13 - 14) =     14.32056  eV     2   --> A''            
     e( 15 - 15) =     16.86531  eV     1   --> A''            
     e( 16 - 16) =     19.76125  eV     1   --> A'             

 **************************************************************************

 **************************************************************************

                    xk=(   0.38333,  -0.22132,   0.31299  )

     Band symmetry, C_s (m)     point group:

     e(  1 -  1) =     -7.82360  eV     1   --> A'             
     e(  2 -  3) =     -7.61000  eV     2   --> A'             
     e(  2 -  3) =     -7.61000  eV     2   --> A''            
     e(  4 -  4) =     -7.59408  eV     1   --> A'             
     e(  5 -  5) =     -7.53305  eV     1   --> A''            
     e(  6 -  6) =     -3.04930  eV     1   --> A'             
     e(  7 -  7) =      1.53185  eV     1   --> A'             
     e(  8 -  9) =      4.46597  eV     2   --> A'             
     e(  8 -  9) =      4.46597  eV     2   --> A''            
     e( 10 - 10) =      8.39079  eV     1   --> A'             
     e( 11 - 11) =      9.00439  eV     1   --> A'             
     e( 12 - 12) =     14.48929  eV     1   --> A'             
     e( 13 - 14) =     14.55536  eV     2   --> A'             
     e( 13 - 14) =     14.55536  eV     2   --> A''            
     e( 15 - 15) =     16.93382  eV     1   --> A''            
     e( 16 - 16) =     19.47098  eV     1   -->   ?

 **************************************************************************

 **************************************************************************

                    xk=(   0.40000,  -0.23094,   0.32660  )

     Band symmetry, C_s (m)     point group:

     e(  1 -  1) =     -7.82810  eV     1   --> A'             
     e(  2 -  3) =     -7.60716  eV     2   --> A'             
     e(  2 -  3) =     -7.60716  eV     2   --> A''            
     e(  4 -  4) =     -7.59562  eV     1   --> A'             
     e(  5 -  5) =     -7.53231  eV     1   --> A''            
     e(  6 -  6) =     -2.94601  eV     1   --> A'             
     e(  7 -  7) =      1.37530  eV     1   --> A'             
     e(  8 -  9) =      4.41404  eV     2   --> A'             
     e(  8 -  9) =      4.41404  eV     2   --> A''            
     e( 10 - 10) =      8.35598  eV     1   --> A'             
     e( 11 - 11) =      8.93173  eV     1   --> A'             
     e( 12 - 12) =     14.68357  eV     1   --> A'             
     e( 13 - 14) =     14.78574  eV     2   --> A'             
     e( 13 - 14) =     14.78574  eV     2   --> A''            
     e( 15 - 15) =     16.99743  eV     1   --> A''            
     e( 16 - 16) =     19.18171  eV     1   -->   ?

 **************************************************************************

 **************************************************************************

                    xk=(   0.41667,  -0.24056,   0.34021  )

     Band symmetry, C_s (m)     point group:

     e(  1 -  1) =     -7.83179  eV     1   --> A'             
     e(  2 -  3) =     -7.60450  eV     2   --> A'             
     e(  2 -  3) =     -7.60450  eV     2   --> A''            
     e(  4 -  4) =     -7.59689  eV     1   --> A'             
     e(  5 -  5) =     -7.53133  eV     1   --> A''            
     e(  6 -  6) =     -2.85097  eV     1   --> A'             
     e(  7 -  7) =      1.23504  eV     1   --> A'             
     e(  8 -  9) =      4.36978  eV     2   --> A'             
     e(  8 -  9) =      4.36978  eV     2   --> A''            
     e( 10 - 10) =      8.32855  eV     1   --> A'             
     e( 11 - 11) =      8.86567  eV     1   --> A'             
     e( 12 - 12) =     14.86722  eV     1   --> A'             
     e( 13 - 14) =     15.00801  eV     2   --> A'             
     e( 13 - 14) =     15.00801  eV     2   --> A''            
     e( 15 - 15) =     17.05473  eV     1   --> A''            
     e( 16 - 16) =     18.90730  eV     1   -->   ?

 **************************************************************************

 **************************************************************************

                    xk=(   0.43333,  -0.25019,   0.35382  )

     Band symmetry, C_s (m)     point group:

     e(  1 -  1) =     -7.83498  eV     1   --> A'             
     e(  2 -  3) =     -7.60240  eV     2   --> A'             
     e(  2 -  3) =     -7.60240  eV     2   --> A''            
     e(  4 -  4) =     -7.59814  eV     1   --> A'             
     e(  5 -  5) =     -7.53063  eV     1   --> A''            
     e(  6 -  6) =     -2.76707  eV     1   --> A'             
     e(  7 -  7) =      1.11400  eV     1   --> A'             
     e(  8 -  9) =      4.33334  eV     2   --> A'             
     e(  8 -  9) =      4.33334  eV     2   --> A''            
     e( 10 - 10) =      8.30791  eV     1   --> A'             
     e( 11 - 11) =      8.80817  eV     1   --> A'             
     e( 12 - 12) =     15.03332  eV     1   --> A'             
     e( 13 - 14) =     15.21656  eV     2   --> A'             
     e( 13 - 14) =     15.21656  eV     2   --> A''            
     e( 15 - 15) =     17.10421  eV     1   --> A''            
     e( 16 - 16) =     18.65492  eV     1   -->   ?

 **************************************************************************

 **************************************************************************

                    xk=(   0.45000,  -0.25981,   0.36742  )

     Band symmetry, C_s (m)     point group:

     e(  1 -  1) =     -7.83751  eV     1   --> A'             
     e(  2 -  3) =     -7.60087  eV     2   --> A'             
     e(  2 -  3) =     -7.60087  eV     2   --> A''            
     e(  4 -  4) =     -7.59914  eV     1   --> A'             
     e(  5 -  5) =     -7.53011  eV     1   --> A''            
     e(  6 -  6) =     -2.69735  eV     1   --> A'             
     e(  7 -  7) =      1.01531  eV     1   --> A'             
     e(  8 -  9) =      4.30486  eV     2   --> A'             
     e(  8 -  9) =      4.30486  eV     2   --> A''            
     e( 10 - 10) =      8.29332  eV     1   --> A'             
     e( 11 - 11) =      8.76104  eV     1   --> A'             
     e( 12 - 12) =     15.17439  eV     1   --> A'             
     e( 13 - 14) =     15.40290  eV     2   --> A'             
     e( 13 - 14) =     15.40290  eV     2   --> A''            
     e( 15 - 15) =     17.14447  eV     1   --> A''            
     e( 16 - 16) =     18.43394  eV     1   -->   ?

 **************************************************************************

 **************************************************************************

                    xk=(   0.46667,  -0.26943,   0.38103  )

     Band symmetry, C_s (m)     point group:

     e(  1 -  1) =     -7.83925  eV     1   --> A'             
     e(  2 -  2) =     -7.59978  eV     1   --> A'             
     e(  3 -  4) =     -7.59955  eV     2   --> A'             
     e(  3 -  4) =     -7.59955  eV     2   --> A''            
     e(  5 -  5) =     -7.52971  eV     1   --> A''            
     e(  6 -  6) =     -2.64480  eV     1   --> A'             
     e(  7 -  7) =      0.94204  eV     1   --> A'             
     e(  8 -  9) =      4.28446  eV     2   --> A'             
     e(  8 -  9) =      4.28446  eV     2   --> A''            
     e( 10 - 10) =      8.28389  eV     1   --> A'             
     e( 11 - 11) =      8.72591  eV     1   --> A'             
     e( 12 - 12) =     15.28269  eV     1   --> A'             
     e( 13 - 14) =     15.55469  eV     2   --> A'             
     e( 13 - 14) =     15.55469  eV     2   --> A''            
     e( 15 - 15) =     17.17425  eV     1   --> A''            
     e( 16 - 16) =     18.25716  eV     1   -->   ?

 **************************************************************************

 **************************************************************************

                    xk=(   0.48333,  -0.27905,   0.39464  )

     Band symmetry, C_s (m)     point group:

     e(  1 -  1) =     -7.84013  eV     1   --> A'             
     e(  2 -  2) =     -7.59995  eV     1   --> A'             
     e(  3 -  4) =     -7.59866  eV     2   --> A'             
     e(  3 -  4) =     -7.59866  eV     2   --> A''            
     e(  5 -  5) =     -7.52940  eV     1   --> A''            
     e(  6 -  6) =     -2.61205  eV     1   --> A'             
     e(  7 -  7) =      0.89686  eV     1   --> A'             
     e(  8 -  9) =      4.27218  eV     2   --> A'             
     e(  8 -  9) =      4.27218  eV     2   --> A''            
     e( 10 - 10) =      8.27872  eV     1   --> A'             
     e( 11 - 11) =      8.70418  eV     1   --> A'             
     e( 12 - 12) =     15.35114  eV     1   --> A'             
     e( 13 - 14) =     15.65616  eV     2   --> A'             
     e( 13 - 14) =     15.65616  eV     2   --> A''            
     e( 15 - 15) =     17.19256  eV     1   --> A''            
     e( 16 - 16) =     18.14061  eV     1   -->   ?

 **************************************************************************

 **************************************************************************

                    xk=(   0.50000,  -0.28868,   0.40825  )

     Band symmetry, C_s (m)     point group:

     e(  1 -  1) =     -7.84043  eV     1   --> A'             
     e(  2 -  2) =     -7.59984  eV     1   --> A'             
     e(  3 -  4) =     -7.59806  eV     2   --> A'             
     e(  3 -  4) =     -7.59806  eV     2   --> A''            
     e(  5 -  5) =     -7.52927  eV     1   --> A''            
     e(  6 -  6) =     -2.60091  eV     1   --> A'             
     e(  7 -  7) =      0.88158  eV     1   --> A'             
     e(  8 -  9) =      4.26809  eV     2   --> A'             
     e(  8 -  9) =      4.26809  eV     2   --> A''            
     e( 10 - 10) =      8.27708  eV     1   --> A'             
     e( 11 - 11) =      8.69682  eV     1   --> A'             
     e( 12 - 12) =     15.37459  eV     1   --> A'             
     e( 13 - 14) =     15.69218  eV     2   --> A'             
     e( 13 - 14) =     15.69218  eV     2   --> A''            
     e( 15 - 15) =     17.19874  eV     1   --> A''            
     e( 16 - 16) =     18.09958  eV     1   -->   ?

 **************************************************************************

 **************************************************************************

                    xk=(   0.50000,  -0.27905,   0.41505  )

     point group C_1 (1)    
     there are  1 classes
     the character table:

       E    
A      1.00

     the symmetry operations in each class and the name of the first element:

     E        1
                                                                 

     Band symmetry, C_1 (1)     point group:

     e(  1 -  1) =     -7.84036  eV     1   --> A              
     e(  2 -  2) =     -7.59997  eV     1   --> A              
     e(  3 -  3) =     -7.59815  eV     1   --> A              
     e(  4 -  4) =     -7.59789  eV     1   --> A              
     e(  5 -  5) =     -7.52930  eV     1   --> A              
     e(  6 -  6) =     -2.60074  eV     1   --> A              
     e(  7 -  7) =      0.88192  eV     1   --> A              
     e(  8 -  9) =      4.26624  eV     2   -->   2 A              
     e( 10 - 10) =      8.28152  eV     1   --> A              
     e( 11 - 11) =      8.70080  eV     1   --> A              
     e( 12 - 12) =     15.35852  eV     1   --> A              
     e( 13 - 13) =     15.67929  eV     1   --> A              
     e( 14 - 14) =     15.70317  eV     1   --> A              
     e( 15 - 15) =     17.20216  eV     1   --> A              
     e( 16 - 16) =     18.09815  eV     1   --> A              

 **************************************************************************

 **************************************************************************

                    xk=(   0.50000,  -0.26943,   0.42186  )

     Band symmetry, C_1 (1)     point group:

     e(  1 -  1) =     -7.84036  eV     1   --> A              
     e(  2 -  2) =     -7.60037  eV     1   --> A              
     e(  3 -  3) =     -7.59865  eV     1   --> A              
     e(  4 -  4) =     -7.59755  eV     1   --> A              
     e(  5 -  5) =     -7.52957  eV     1   --> A              
     e(  6 -  6) =     -2.60025  eV     1   --> A              
     e(  7 -  7) =      0.88295  eV     1   --> A              
     e(  8 -  8) =      4.26072  eV     1   --> A              
     e(  9 -  9) =      4.26093  eV     1   --> A              
     e( 10 - 10) =      8.29478  eV     1   --> A              
     e( 11 - 11) =      8.71271  eV     1   --> A              
     e( 12 - 12) =     15.31549  eV     1   --> A              
     e( 13 - 13) =     15.64130  eV     1   --> A              
     e( 14 - 14) =     15.73101  eV     1   --> A              
     e( 15 - 15) =     17.21198  eV     1   --> A              
     e( 16 - 16) =     18.09414  eV     1   --> A              

 **************************************************************************

 **************************************************************************

                    xk=(   0.50000,  -0.25981,   0.42866  )

     Band symmetry, C_1 (1)     point group:

     e(  1 -  1) =     -7.84013  eV     1   --> A              
     e(  2 -  2) =     -7.60084  eV     1   --> A              
     e(  3 -  3) =     -7.59926  eV     1   --> A              
     e(  4 -  4) =     -7.59711  eV     1   --> A              
     e(  5 -  5) =     -7.52977  eV     1   --> A              
     e(  6 -  6) =     -2.59941  eV     1   --> A              
     e(  7 -  7) =      0.88464  eV     1   --> A              
     e(  8 -  8) =      4.25163  eV     1   --> A              
     e(  9 -  9) =      4.25210  eV     1   --> A              
     e( 10 - 10) =      8.31678  eV     1   --> A              
     e( 11 - 11) =      8.73245  eV     1   --> A              
     e( 12 - 12) =     15.25439  eV     1   --> A              
     e( 13 - 13) =     15.58011  eV     1   --> A              
     e( 14 - 14) =     15.76702  eV     1   --> A              
     e( 15 - 15) =     17.22704  eV     1   --> A              
     e( 16 - 16) =     18.08828  eV     1   --> A              

 **************************************************************************

 **************************************************************************

                    xk=(   0.50000,  -0.25019,   0.43546  )

     Band symmetry, C_1 (1)     point group:

     e(  1 -  1) =     -7.83975  eV     1   --> A              
     e(  2 -  2) =     -7.60132  eV     1   --> A              
     e(  3 -  3) =     -7.59992  eV     1   --> A              
     e(  4 -  4) =     -7.59662  eV     1   --> A              
     e(  5 -  5) =     -7.53014  eV     1   --> A              
     e(  6 -  6) =     -2.59825  eV     1   --> A              
     e(  7 -  7) =      0.88700  eV     1   --> A              
     e(  8 -  8) =      4.23911  eV     1   --> A              
     e(  9 -  9) =      4.23999  eV     1   --> A              
     e( 10 - 10) =      8.34734  eV     1   --> A              
     e( 11 - 11) =      8.75987  eV     1   --> A              
     e( 12 - 12) =     15.18125  eV     1   --> A              
     e( 13 - 13) =     15.49839  eV     1   --> A              
     e( 14 - 14) =     15.80549  eV     1   --> A              
     e( 15 - 15) =     17.24579  eV     1   --> A              
     e( 16 - 16) =     18.08154  eV     1   --> A              

 **************************************************************************

 **************************************************************************

                    xk=(   0.50000,  -0.24056,   0.44227  )

     Band symmetry, C_1 (1)     point group:

     e(  1 -  1) =     -7.83925  eV     1   --> A              
     e(  2 -  2) =     -7.60170  eV     1   --> A              
     e(  3 -  3) =     -7.60077  eV     1   --> A              
     e(  4 -  4) =     -7.59596  eV     1   --> A              
     e(  5 -  5) =     -7.53050  eV     1   --> A              
     e(  6 -  6) =     -2.59678  eV     1   --> A              
     e(  7 -  7) =      0.89000  eV     1   --> A              
     e(  8 -  8) =      4.22336  eV     1   --> A              
     e(  9 -  9) =      4.22480  eV     1   --> A              
     e( 10 - 10) =      8.38623  eV     1   --> A              
     e( 11 - 11) =      8.79475  eV     1   --> A              
     e( 12 - 12) =     15.09931  eV     1   --> A              
     e( 13 - 13) =     15.39907  eV     1   --> A              
     e( 14 - 14) =     15.84360  eV     1   --> A              
     e( 15 - 15) =     17.26671  eV     1   --> A              
     e( 16 - 16) =     18.07489  eV     1   --> A              

 **************************************************************************

 **************************************************************************

                    xk=(   0.50000,  -0.23094,   0.44907  )

     Band symmetry, C_1 (1)     point group:

     e(  1 -  1) =     -7.83862  eV     1   --> A              
     e(  2 -  2) =     -7.60205  eV     1   --> A              
     e(  3 -  3) =     -7.60173  eV     1   --> A              
     e(  4 -  4) =     -7.59524  eV     1   --> A              
     e(  5 -  5) =     -7.53085  eV     1   --> A              
     e(  6 -  6) =     -2.59501  eV     1   --> A              
     e(  7 -  7) =      0.89362  eV     1   --> A              
     e(  8 -  8) =      4.20463  eV     1   --> A              
     e(  9 -  9) =      4.20682  eV     1   --> A              
     e( 10 - 10) =      8.43319  eV     1   --> A              
     e( 11 - 11) =      8.83682  eV     1   --> A              
     e( 12 - 12) =     15.01036  eV     1   --> A              
     e( 13 - 13) =     15.28502  eV     1   --> A              
     e( 14 - 14) =     15.88008  eV     1   --> A              
     e( 15 - 15) =     17.28849  eV     1   --> A              
     e( 16 - 16) =     18.06919  eV     1   --> A              

 **************************************************************************

 **************************************************************************

                    xk=(   0.50000,  -0.22132,   0.45588  )

     Band symmetry, C_1 (1)     point group:

     e(  1 -  1) =     -7.83784  eV     1   --> A              
     e(  2 -  2) =     -7.60279  eV     1   --> A              
     e(  3 -  3) =     -7.60241  eV     1   --> A              
     e(  4 -  4) =     -7.59451  eV     1   --> A              
     e(  5 -  5) =     -7.53113  eV     1   --> A              
     e(  6 -  6) =     -2.59296  eV     1   --> A              
     e(  7 -  7) =      0.89783  eV     1   --> A              
     e(  8 -  8) =      4.18320  eV     1   --> A              
     e(  9 -  9) =      4.18634  eV     1   --> A              
     e( 10 - 10) =      8.48789  eV     1   --> A              
     e( 11 - 11) =      8.88577  eV     1   --> A              
     e( 12 - 12) =     14.91548  eV     1   --> A              
     e( 13 - 13) =     15.15881  eV     1   --> A              
     e( 14 - 14) =     15.91440  eV     1   --> A              
     e( 15 - 15) =     17.31015  eV     1   --> A              
     e( 16 - 16) =     18.06505  eV     1   --> A              

 **************************************************************************

 **************************************************************************

                    xk=(   0.50000,  -0.21170,   0.46268  )

     Band symmetry, C_1 (1)     point group:

     e(  1 -  1) =     -7.83689  eV     1   --> A              
     e(  2 -  2) =     -7.60404  eV     1   --> A              
     e(  3 -  3) =     -7.60271  eV     1   --> A              
     e(  4 -  4) =     -7.59369  eV     1   --> A              
     e(  5 -  5) =     -7.53160  eV     1   --> A              
     e(  6 -  6) =     -2.59065  eV     1   --> A              
     e(  7 -  7) =      0.90259  eV     1   --> A              
     e(  8 -  8) =      4.15939  eV     1   --> A              
     e(  9 -  9) =      4.16369  eV     1   --> A              
     e( 10 - 10) =      8.55000  eV     1   --> A              
     e( 11 - 11) =      8.94126  eV     1   --> A              
     e( 12 - 12) =     14.81546  eV     1   --> A              
     e( 13 - 13) =     15.02271  eV     1   --> A              
     e( 14 - 14) =     15.94642  eV     1   --> A              
     e( 15 - 15) =     17.33103  eV     1   --> A              
     e( 16 - 16) =     18.06292  eV     1   --> A              

 **************************************************************************

 **************************************************************************

                    xk=(   0.50000,  -0.20207,   0.46949  )

     Band symmetry, C_1 (1)     point group:

     e(  1 -  1) =     -7.83583  eV     1   --> A              
     e(  2 -  2) =     -7.60541  eV     1   --> A              
     e(  3 -  3) =     -7.60309  eV     1   --> A              
     e(  4 -  4) =     -7.59292  eV     1   --> A              
     e(  5 -  5) =     -7.53196  eV     1   --> A              
     e(  6 -  6) =     -2.58810  eV     1   --> A              
     e(  7 -  7) =      0.90785  eV     1   --> A              
     e(  8 -  8) =      4.13353  eV     1   --> A              
     e(  9 -  9) =      4.13924  eV     1   --> A              
     e( 10 - 10) =      8.61915  eV     1   --> A              
     e( 11 - 11) =      9.00290  eV     1   --> A              
     e( 12 - 12) =     14.71092  eV     1   --> A              
     e( 13 - 13) =     14.87859  eV     1   --> A              
     e( 14 - 14) =     15.97614  eV     1   --> A              
     e( 15 - 15) =     17.35072  eV     1   --> A              
     e( 16 - 16) =     18.06303  eV     1   --> A              

 **************************************************************************

 **************************************************************************

                    xk=(   0.50000,  -0.19245,   0.47629  )

     Band symmetry, C_1 (1)     point group:

     e(  1 -  1) =     -7.83475  eV     1   --> A              
     e(  2 -  2) =     -7.60694  eV     1   --> A              
     e(  3 -  3) =     -7.60340  eV     1   --> A              
     e(  4 -  4) =     -7.59207  eV     1   --> A              
     e(  5 -  5) =     -7.53261  eV     1   --> A              
     e(  6 -  6) =     -2.58536  eV     1   --> A              
     e(  7 -  7) =      0.91359  eV     1   --> A              
     e(  8 -  8) =      4.10595  eV     1   --> A              
     e(  9 -  9) =      4.11332  eV     1   --> A              
     e( 10 - 10) =      8.69495  eV     1   --> A              
     e( 11 - 11) =      9.07030  eV     1   --> A              
     e( 12 - 12) =     14.60239  eV     1   --> A              
     e( 13 - 13) =     14.72806  eV     1   --> A              
     e( 14 - 14) =     16.00368  eV     1   --> A              
     e( 15 - 15) =     17.36899  eV     1   --> A              
     e( 16 - 16) =     18.06547  eV     1   --> A              

 **************************************************************************

 **************************************************************************

                    xk=(   0.50000,  -0.18283,   0.48309  )

     Band symmetry, C_1 (1)     point group:

     e(  1 -  1) =     -7.83349  eV     1   --> A              
     e(  2 -  2) =     -7.60841  eV     1   --> A              
     e(  3 -  3) =     -7.60359  eV     1   --> A              
     e(  4 -  4) =     -7.59109  eV     1   --> A              
     e(  5 -  5) =     -7.53322  eV     1   --> A              
     e(  6 -  6) =     -2.58243  eV     1   --> A              
     e(  7 -  7) =      0.91974  eV     1   --> A              
     e(  8 -  8) =      4.07702  eV     1   --> A              
     e(  9 -  9) =      4.08631  eV     1   --> A              
     e( 10 - 10) =      8.77704  eV     1   --> A              
     e( 11 - 11) =      9.14303  eV     1   --> A              
     e( 12 - 12) =     14.49039  eV     1   --> A              
     e( 13 - 13) =     14.57247  eV     1   --> A              
     e( 14 - 14) =     16.02919  eV     1   --> A              
     e( 15 - 15) =     17.38577  eV     1   --> A              
     e( 16 - 16) =     18.07021  eV     1   --> A              

 **************************************************************************

 **************************************************************************

                    xk=(   0.50000,  -0.17321,   0.48990  )

     Band symmetry, C_1 (1)     point group:

     e(  1 -  1) =     -7.83218  eV     1   --> A              
     e(  2 -  2) =     -7.61014  eV     1   --> A              
     e(  3 -  3) =     -7.60381  eV     1   --> A              
     e(  4 -  4) =     -7.59012  eV     1   --> A              
     e(  5 -  5) =     -7.53389  eV     1   --> A              
     e(  6 -  6) =     -2.57935  eV     1   --> A              
     e(  7 -  7) =      0.92625  eV     1   --> A              
     e(  8 -  8) =      4.04709  eV     1   --> A              
     e(  9 -  9) =      4.05855  eV     1   --> A              
     e( 10 - 10) =      8.86502  eV     1   --> A              
     e( 11 - 11) =      9.22065  eV     1   --> A              
     e( 12 - 12) =     14.37541  eV     1   --> A              
     e( 13 - 13) =     14.41291  eV     1   --> A              
     e( 14 - 14) =     16.05283  eV     1   --> A              
     e( 15 - 15) =     17.40107  eV     1   --> A              
     e( 16 - 16) =     18.07714  eV     1   --> A              

 **************************************************************************

 **************************************************************************

                    xk=(   0.50000,  -0.16358,   0.49670  )

     Band symmetry, C_1 (1)     point group:

     e(  1 -  1) =     -7.83079  eV     1   --> A              
     e(  2 -  2) =     -7.61194  eV     1   --> A              
     e(  3 -  3) =     -7.60401  eV     1   --> A              
     e(  4 -  4) =     -7.58913  eV     1   --> A              
     e(  5 -  5) =     -7.53460  eV     1   --> A              
     e(  6 -  6) =     -2.57617  eV     1   --> A              
     e(  7 -  7) =      0.93306  eV     1   --> A              
     e(  8 -  8) =      4.01651  eV     1   --> A              
     e(  9 -  9) =      4.03038  eV     1   --> A              
     e( 10 - 10) =      8.95851  eV     1   --> A              
     e( 11 - 11) =      9.30270  eV     1   --> A              
     e( 12 - 12) =     14.25035  eV     1   --> A              
     e( 13 - 13) =     14.25795  eV     1   --> A              
     e( 14 - 14) =     16.07475  eV     1   --> A              
     e( 15 - 15) =     17.41492  eV     1   --> A              
     e( 16 - 16) =     18.08609  eV     1   --> A              

 **************************************************************************

 **************************************************************************

                    xk=(   0.50000,  -0.15396,   0.50351  )

     Band symmetry, C_1 (1)     point group:

     e(  1 -  1) =     -7.82956  eV     1   --> A              
     e(  2 -  2) =     -7.61396  eV     1   --> A              
     e(  3 -  3) =     -7.60422  eV     1   --> A              
     e(  4 -  4) =     -7.58816  eV     1   --> A              
     e(  5 -  5) =     -7.53542  eV     1   --> A              
     e(  6 -  6) =     -2.57292  eV     1   --> A              
     e(  7 -  7) =      0.94010  eV     1   --> A              
     e(  8 -  8) =      3.98563  eV     1   --> A              
     e(  9 -  9) =      4.00212  eV     1   --> A              
     e( 10 - 10) =      9.05712  eV     1   --> A              
     e( 11 - 11) =      9.38870  eV     1   --> A              
     e( 12 - 12) =     14.08559  eV     1   --> A              
     e( 13 - 13) =     14.13848  eV     1   --> A              
     e( 14 - 14) =     16.09508  eV     1   --> A              
     e( 15 - 15) =     17.42743  eV     1   --> A              
     e( 16 - 16) =     18.09685  eV     1   --> A              

 **************************************************************************

 **************************************************************************

                    xk=(   0.50000,  -0.14434,   0.51031  )

     Band symmetry, C_1 (1)     point group:

     e(  1 -  1) =     -7.82808  eV     1   --> A              
     e(  2 -  2) =     -7.61588  eV     1   --> A              
     e(  3 -  3) =     -7.60439  eV     1   --> A              
     e(  4 -  4) =     -7.58712  eV     1   --> A              
     e(  5 -  5) =     -7.53621  eV     1   --> A              
     e(  6 -  6) =     -2.56961  eV     1   --> A              
     e(  7 -  7) =      0.94729  eV     1   --> A              
     e(  8 -  8) =      3.95478  eV     1   --> A              
     e(  9 -  9) =      3.97409  eV     1   --> A              
     e( 10 - 10) =      9.16048  eV     1   --> A              
     e( 11 - 11) =      9.47815  eV     1   --> A              
     e( 12 - 12) =     13.91937  eV     1   --> A              
     e( 13 - 13) =     14.01755  eV     1   --> A              
     e( 14 - 14) =     16.11396  eV     1   --> A              
     e( 15 - 15) =     17.43870  eV     1   --> A              
     e( 16 - 16) =     18.10917  eV     1   --> A              

 **************************************************************************

 **************************************************************************

                    xk=(   0.50000,  -0.13472,   0.51711  )

     Band symmetry, C_1 (1)     point group:

     e(  1 -  1) =     -7.82662  eV     1   --> A              
     e(  2 -  2) =     -7.61797  eV     1   --> A              
     e(  3 -  3) =     -7.60463  eV     1   --> A              
     e(  4 -  4) =     -7.58622  eV     1   --> A              
     e(  5 -  5) =     -7.53712  eV     1   --> A              
     e(  6 -  6) =     -2.56630  eV     1   --> A              
     e(  7 -  7) =      0.95456  eV     1   --> A              
     e(  8 -  8) =      3.92427  eV     1   --> A              
     e(  9 -  9) =      3.94658  eV     1   --> A              
     e( 10 - 10) =      9.26820  eV     1   --> A              
     e( 11 - 11) =      9.57050  eV     1   --> A              
     e( 12 - 12) =     13.75229  eV     1   --> A              
     e( 13 - 13) =     13.89568  eV     1   --> A              
     e( 14 - 14) =     16.13147  eV     1   --> A              
     e( 15 - 15) =     17.44882  eV     1   --> A              
     e( 16 - 16) =     18.12277  eV     1   --> A              

 **************************************************************************

 **************************************************************************

                    xk=(   0.50000,  -0.12509,   0.52392  )

     Band symmetry, C_1 (1)     point group:

     e(  1 -  1) =     -7.82510  eV     1   --> A              
     e(  2 -  2) =     -7.61991  eV     1   --> A              
     e(  3 -  3) =     -7.60476  eV     1   --> A              
     e(  4 -  4) =     -7.58516  eV     1   --> A              
     e(  5 -  5) =     -7.53796  eV     1   --> A              
     e(  6 -  6) =     -2.56302  eV     1   --> A              
     e(  7 -  7) =      0.96185  eV     1   --> A              
     e(  8 -  8) =      3.89443  eV     1   --> A              
     e(  9 -  9) =      3.91984  eV     1   --> A              
     e( 10 - 10) =      9.37988  eV     1   --> A              
     e( 11 - 11) =      9.66518  eV     1   --> A              
     e( 12 - 12) =     13.58495  eV     1   --> A              
     e( 13 - 13) =     13.77348  eV     1   --> A              
     e( 14 - 14) =     16.14770  eV     1   --> A              
     e( 15 - 15) =     17.45791  eV     1   --> A              
     e( 16 - 16) =     18.13737  eV     1   --> A              

 **************************************************************************

 **************************************************************************

                    xk=(   0.50000,  -0.11547,   0.53072  )

     Band symmetry, C_1 (1)     point group:

     e(  1 -  1) =     -7.82373  eV     1   --> A              
     e(  2 -  2) =     -7.62180  eV     1   --> A              
     e(  3 -  3) =     -7.60489  eV     1   --> A              
     e(  4 -  4) =     -7.58410  eV     1   --> A              
     e(  5 -  5) =     -7.53882  eV     1   --> A              
     e(  6 -  6) =     -2.55981  eV     1   --> A              
     e(  7 -  7) =      0.96905  eV     1   --> A              
     e(  8 -  8) =      3.86553  eV     1   --> A              
     e(  9 -  9) =      3.89413  eV     1   --> A              
     e( 10 - 10) =      9.49510  eV     1   --> A              
     e( 11 - 11) =      9.76156  eV     1   --> A              
     e( 12 - 12) =     13.41791  eV     1   --> A              
     e( 13 - 13) =     13.65157  eV     1   --> A              
     e( 14 - 14) =     16.16270  eV     1   --> A              
     e( 15 - 15) =     17.46606  eV     1   --> A              
     e( 16 - 16) =     18.15267  eV     1   --> A              

 **************************************************************************

 **************************************************************************

                    xk=(   0.50000,  -0.10585,   0.53753  )

     Band symmetry, C_1 (1)     point group:

     e(  1 -  1) =     -7.82249  eV     1   --> A              
     e(  2 -  2) =     -7.62380  eV     1   --> A              
     e(  3 -  3) =     -7.60505  eV     1   --> A              
     e(  4 -  4) =     -7.58310  eV     1   --> A              
     e(  5 -  5) =     -7.53960  eV     1   --> A              
     e(  6 -  6) =     -2.55671  eV     1   --> A              
     e(  7 -  7) =      0.97609  eV     1   --> A              
     e(  8 -  8) =      3.83786  eV     1   --> A              
     e(  9 -  9) =      3.86968  eV     1   --> A              
     e( 10 - 10) =      9.61342  eV     1   --> A              
     e( 11 - 11) =      9.85892  eV     1   --> A              
     e( 12 - 12) =     13.25172  eV     1   --> A              
     e( 13 - 13) =     13.53068  eV     1   --> A              
     e( 14 - 14) =     16.17652  eV     1   --> A              
     e( 15 - 15) =     17.47333  eV     1   --> A              
     e( 16 - 16) =     18.16835  eV     1   --> A              

 **************************************************************************

 **************************************************************************

                    xk=(   0.50000,  -0.09623,   0.54433  )

     Band symmetry, C_1 (1)     point group:

     e(  1 -  1) =     -7.82104  eV     1   --> A              
     e(  2 -  2) =     -7.62564  eV     1   --> A              
     e(  3 -  3) =     -7.60515  eV     1   --> A              
     e(  4 -  4) =     -7.58207  eV     1   --> A              
     e(  5 -  5) =     -7.54046  eV     1   --> A              
     e(  6 -  6) =     -2.55373  eV     1   --> A              
     e(  7 -  7) =      0.98289  eV     1   --> A              
     e(  8 -  8) =      3.81167  eV     1   --> A              
     e(  9 -  9) =      3.84668  eV     1   --> A              
     e( 10 - 10) =      9.73432  eV     1   --> A              
     e( 11 - 11) =      9.95644  eV     1   --> A              
     e( 12 - 12) =     13.08697  eV     1   --> A              
     e( 13 - 13) =     13.41163  eV     1   --> A              
     e( 14 - 14) =     16.18918  eV     1   --> A              
     e( 15 - 15) =     17.47981  eV     1   --> A              
     e( 16 - 16) =     18.18411  eV     1   --> A              

 **************************************************************************

 **************************************************************************

                    xk=(   0.50000,  -0.08660,   0.55114  )

     Band symmetry, C_1 (1)     point group:

     e(  1 -  1) =     -7.81964  eV     1   --> A              
     e(  2 -  2) =     -7.62739  eV     1   --> A              
     e(  3 -  3) =     -7.60524  eV     1   --> A              
     e(  4 -  4) =     -7.58106  eV     1   --> A              
     e(  5 -  5) =     -7.54131  eV     1   --> A              
     e(  6 -  6) =     -2.55092  eV     1   --> A              
     e(  7 -  7) =      0.98936  eV     1   --> A              
     e(  8 -  8) =      3.78721  eV     1   --> A              
     e(  9 -  9) =      3.82533  eV     1   --> A              
     e( 10 - 10) =      9.85721  eV     1   --> A              
     e( 11 - 11) =     10.05319  eV     1   --> A              
     e( 12 - 12) =     12.92432  eV     1   --> A              
     e( 13 - 13) =     13.29539  eV     1   --> A              
     e( 14 - 14) =     16.20068  eV     1   --> A              
     e( 15 - 15) =     17.48556  eV     1   --> A              
     e( 16 - 16) =     18.19963  eV     1   --> A              

 **************************************************************************

 **************************************************************************

                    xk=(   0.50000,  -0.07698,   0.55794  )

     Band symmetry, C_1 (1)     point group:

     e(  1 -  1) =     -7.81835  eV     1   --> A              
     e(  2 -  2) =     -7.62898  eV     1   --> A              
     e(  3 -  3) =     -7.60530  eV     1   --> A              
     e(  4 -  4) =     -7.58010  eV     1   --> A              
     e(  5 -  5) =     -7.54231  eV     1   --> A              
     e(  6 -  6) =     -2.54831  eV     1   --> A              
     e(  7 -  7) =      0.99542  eV     1   --> A              
     e(  8 -  8) =      3.76470  eV     1   --> A              
     e(  9 -  9) =      3.80580  eV     1   --> A              
     e( 10 - 10) =      9.98132  eV     1   --> A              
     e( 11 - 11) =     10.14802  eV     1   --> A              
     e( 12 - 12) =     12.76457  eV     1   --> A              
     e( 13 - 13) =     13.18307  eV     1   --> A              
     e( 14 - 14) =     16.21104  eV     1   --> A              
     e( 15 - 15) =     17.49062  eV     1   --> A              
     e( 16 - 16) =     18.21458  eV     1   --> A              

 **************************************************************************

 **************************************************************************

                    xk=(   0.50000,  -0.06736,   0.56474  )

     Band symmetry, C_1 (1)     point group:

     e(  1 -  1) =     -7.81709  eV     1   --> A              
     e(  2 -  2) =     -7.63038  eV     1   --> A              
     e(  3 -  3) =     -7.60536  eV     1   --> A              
     e(  4 -  4) =     -7.57919  eV     1   --> A              
     e(  5 -  5) =     -7.54315  eV     1   --> A              
     e(  6 -  6) =     -2.54593  eV     1   --> A              
     e(  7 -  7) =      1.00098  eV     1   --> A              
     e(  8 -  8) =      3.74434  eV     1   --> A              
     e(  9 -  9) =      3.78822  eV     1   --> A              
     e( 10 - 10) =     10.10566  eV     1   --> A              
     e( 11 - 11) =     10.23959  eV     1   --> A              
     e( 12 - 12) =     12.60874  eV     1   --> A              
     e( 13 - 13) =     13.07605  eV     1   --> A              
     e( 14 - 14) =     16.22024  eV     1   --> A              
     e( 15 - 15) =     17.49502  eV     1   --> A              
     e( 16 - 16) =     18.22868  eV     1   --> A              

 **************************************************************************

 **************************************************************************

                    xk=(   0.50000,  -0.05774,   0.57155  )

     Band symmetry, C_1 (1)     point group:

     e(  1 -  1) =     -7.81597  eV     1   --> A              
     e(  2 -  2) =     -7.63172  eV     1   --> A              
     e(  3 -  3) =     -7.60529  eV     1   --> A              
     e(  4 -  4) =     -7.57827  eV     1   --> A              
     e(  5 -  5) =     -7.54386  eV     1   --> A              
     e(  6 -  6) =     -2.54381  eV     1   --> A              
     e(  7 -  7) =      1.00598  eV     1   --> A              
     e(  8 -  8) =      3.72632  eV     1   --> A              
     e(  9 -  9) =      3.77273  eV     1   --> A              
     e( 10 - 10) =     10.22886  eV     1   --> A              
     e( 11 - 11) =     10.32628  eV     1   --> A              
     e( 12 - 12) =     12.45822  eV     1   --> A              
     e( 13 - 13) =     12.97596  eV     1   --> A              
     e( 14 - 14) =     16.22827  eV     1   --> A              
     e( 15 - 15) =     17.49880  eV     1   --> A              
     e( 16 - 16) =     18.24162  eV     1   --> A              

 **************************************************************************

 **************************************************************************

                    xk=(   0.50000,  -0.04811,   0.57835  )

     Band symmetry, C_1 (1)     point group:

     e(  1 -  1) =     -7.81508  eV     1   --> A              
     e(  2 -  2) =     -7.63299  eV     1   --> A              
     e(  3 -  3) =     -7.60541  eV     1   --> A              
     e(  4 -  4) =     -7.57754  eV     1   --> A              
     e(  5 -  5) =     -7.54454  eV     1   --> A              
     e(  6 -  6) =     -2.54198  eV     1   --> A              
     e(  7 -  7) =      1.01033  eV     1   --> A              
     e(  8 -  8) =      3.71078  eV     1   --> A              
     e(  9 -  9) =      3.75944  eV     1   --> A              
     e( 10 - 10) =     10.34890  eV     1   --> A              
     e( 11 - 11) =     10.40613  eV     1   --> A              
     e( 12 - 12) =     12.31504  eV     1   --> A              
     e( 13 - 13) =     12.88474  eV     1   --> A              
     e( 14 - 14) =     16.23510  eV     1   --> A              
     e( 15 - 15) =     17.50196  eV     1   --> A              
     e( 16 - 16) =     18.25312  eV     1   --> A              

 **************************************************************************

 **************************************************************************

                    xk=(   0.50000,  -0.03849,   0.58516  )

     Band symmetry, C_1 (1)     point group:

     e(  1 -  1) =     -7.81426  eV     1   --> A              
     e(  2 -  2) =     -7.63400  eV     1   --> A              
     e(  3 -  3) =     -7.60544  eV     1   --> A              
     e(  4 -  4) =     -7.57688  eV     1   --> A              
     e(  5 -  5) =     -7.54513  eV     1   --> A              
     e(  6 -  6) =     -2.54044  eV     1   --> A              
     e(  7 -  7) =      1.01398  eV     1   --> A              
     e(  8 -  8) =      3.69788  eV     1   --> A              
     e(  9 -  9) =      3.74844  eV     1   --> A              
     e( 10 - 10) =     10.46278  eV     1   --> A              
     e( 11 - 11) =     10.47687  eV     1   --> A              
     e( 12 - 12) =     12.18222  eV     1   --> A              
     e( 13 - 13) =     12.80470  eV     1   --> A              
     e( 14 - 14) =     16.24073  eV     1   --> A              
     e( 15 - 15) =     17.50454  eV     1   --> A              
     e( 16 - 16) =     18.26291  eV     1   --> A              

 **************************************************************************

 **************************************************************************

                    xk=(   0.50000,  -0.02887,   0.59196  )

     Band symmetry, C_1 (1)     point group:

     e(  1 -  1) =     -7.81366  eV     1   --> A              
     e(  2 -  2) =     -7.63484  eV     1   --> A              
     e(  3 -  3) =     -7.60547  eV     1   --> A              
     e(  4 -  4) =     -7.57635  eV     1   --> A              
     e(  5 -  5) =     -7.54564  eV     1   --> A              
     e(  6 -  6) =     -2.53924  eV     1   --> A              
     e(  7 -  7) =      1.01688  eV     1   --> A              
     e(  8 -  8) =      3.68772  eV     1   --> A              
     e(  9 -  9) =      3.73981  eV     1   --> A              
     e( 10 - 10) =     10.53593  eV     1   --> A              
     e( 11 - 11) =     10.56582  eV     1   --> A              
     e( 12 - 12) =     12.06444  eV     1   --> A              
     e( 13 - 13) =     12.73839  eV     1   --> A              
     e( 14 - 14) =     16.24513  eV     1   --> A              
     e( 15 - 15) =     17.50653  eV     1   --> A              
     e( 16 - 16) =     18.27079  eV     1   --> A              

 **************************************************************************

 **************************************************************************

                    xk=(   0.50000,  -0.01925,   0.59876  )

     Band symmetry, C_1 (1)     point group:

     e(  1 -  1) =     -7.81302  eV     1   --> A              
     e(  2 -  2) =     -7.63529  eV     1   --> A              
     e(  3 -  3) =     -7.60545  eV     1   --> A              
     e(  4 -  4) =     -7.57592  eV     1   --> A              
     e(  5 -  5) =     -7.54585  eV     1   --> A              
     e(  6 -  6) =     -2.53835  eV     1   --> A              
     e(  7 -  7) =      1.01899  eV     1   --> A              
     e(  8 -  8) =      3.68041  eV     1   --> A              
     e(  9 -  9) =      3.73360  eV     1   --> A              
     e( 10 - 10) =     10.58067  eV     1   --> A              
     e( 11 - 11) =     10.65100  eV     1   --> A              
     e( 12 - 12) =     11.96874  eV     1   --> A              
     e( 13 - 13) =     12.68848  eV     1   --> A              
     e( 14 - 14) =     16.24829  eV     1   --> A              
     e( 15 - 15) =     17.50796  eV     1   --> A              
     e( 16 - 16) =     18.27655  eV     1   --> A              

 **************************************************************************

 **************************************************************************

                    xk=(   0.50000,  -0.00962,   0.60557  )

     Band symmetry, C_1 (1)     point group:

     e(  1 -  1) =     -7.81272  eV     1   --> A              
     e(  2 -  2) =     -7.63564  eV     1   --> A              
     e(  3 -  3) =     -7.60546  eV     1   --> A              
     e(  4 -  4) =     -7.57568  eV     1   --> A              
     e(  5 -  5) =     -7.54583  eV     1   --> A              
     e(  6 -  6) =     -2.53782  eV     1   --> A              
     e(  7 -  7) =      1.02026  eV     1   --> A              
     e(  8 -  8) =      3.67599  eV     1   --> A              
     e(  9 -  9) =      3.72986  eV     1   --> A              
     e( 10 - 10) =     10.60868  eV     1   --> A              
[...]

 **************************************************************************

                    xk=(   0.44167,  -0.05292,   0.49779  )

     Band symmetry, C_1 (1)     point group:

     e(  1 -  1) =     -7.81648  eV     1   --> A              
     e(  2 -  2) =     -7.62921  eV     1   --> A              
     e(  3 -  3) =     -7.60752  eV     1   --> A              
     e(  4 -  4) =     -7.58048  eV     1   --> A              
     e(  5 -  5) =     -7.54139  eV     1   --> A              
     e(  6 -  6) =     -2.64999  eV     1   --> A              
     e(  7 -  7) =      1.09150  eV     1   --> A              
     e(  8 -  8) =      3.70417  eV     1   --> A              
     e(  9 -  9) =      4.07718  eV     1   --> A              
     e( 10 - 10) =      9.86116  eV     1   --> A              
     e( 11 - 11) =     10.05584  eV     1   --> A              
     e( 12 - 12) =     12.34126  eV     1   --> A              
     e( 13 - 13) =     13.97914  eV     1   --> A              
     e( 14 - 14) =     15.57713  eV     1   --> A              
     e( 15 - 15) =     17.41343  eV     1   --> A              
     e( 16 - 16) =     18.21489  eV     1   --> A              

 **************************************************************************

 **************************************************************************

                    xk=(   0.44583,  -0.06976,   0.49139  )

     Band symmetry, C_1 (1)     point group:

     e(  1 -  1) =     -7.81887  eV     1   --> A              
     e(  2 -  2) =     -7.62639  eV     1   --> A              
     e(  3 -  3) =     -7.60696  eV     1   --> A              
     e(  4 -  4) =     -7.58216  eV     1   --> A              
     e(  5 -  5) =     -7.54009  eV     1   --> A              
     e(  6 -  6) =     -2.64578  eV     1   --> A              
     e(  7 -  7) =      1.07675  eV     1   --> A              
     e(  8 -  8) =      3.75944  eV     1   --> A              
     e(  9 -  9) =      4.06757  eV     1   --> A              
     e( 10 - 10) =      9.67759  eV     1   --> A              
     e( 11 - 11) =      9.91419  eV     1   --> A              
     e( 12 - 12) =     12.60268  eV     1   --> A              
     e( 13 - 13) =     14.10170  eV     1   --> A              
     e( 14 - 14) =     15.64142  eV     1   --> A              
     e( 15 - 15) =     17.49242  eV     1   --> A              
     e( 16 - 16) =     18.12114  eV     1   --> A              

 **************************************************************************

 **************************************************************************

                    xk=(   0.45000,  -0.08660,   0.48500  )

     Band symmetry, C_1 (1)     point group:

     e(  1 -  1) =     -7.82126  eV     1   --> A              
     e(  2 -  2) =     -7.62323  eV     1   --> A              
     e(  3 -  3) =     -7.60637  eV     1   --> A              
     e(  4 -  4) =     -7.58382  eV     1   --> A              
     e(  5 -  5) =     -7.53869  eV     1   --> A              
     e(  6 -  6) =     -2.64127  eV     1   --> A              
     e(  7 -  7) =      1.05971  eV     1   --> A              
     e(  8 -  8) =      3.81581  eV     1   --> A              
     e(  9 -  9) =      4.06567  eV     1   --> A              
     e( 10 - 10) =      9.49748  eV     1   --> A              
     e( 11 - 11) =      9.77088  eV     1   --> A              
     e( 12 - 12) =     12.87509  eV     1   --> A              
     e( 13 - 13) =     14.22873  eV     1   --> A              
     e( 14 - 14) =     15.69994  eV     1   --> A              
     e( 15 - 15) =     17.55212  eV     1   --> A              
     e( 16 - 16) =     18.04189  eV     1   --> A              

 **************************************************************************

 **************************************************************************

                    xk=(   0.45417,  -0.10344,   0.47860  )

     Band symmetry, C_1 (1)     point group:

     e(  1 -  1) =     -7.82377  eV     1   --> A              
     e(  2 -  2) =     -7.62020  eV     1   --> A              
     e(  3 -  3) =     -7.60584  eV     1   --> A              
     e(  4 -  4) =     -7.58549  eV     1   --> A              
     e(  5 -  5) =     -7.53749  eV     1   --> A              
     e(  6 -  6) =     -2.63655  eV     1   --> A              
     e(  7 -  7) =      1.04087  eV     1   --> A              
     e(  8 -  8) =      3.87257  eV     1   --> A              
     e(  9 -  9) =      4.07089  eV     1   --> A              
     e( 10 - 10) =      9.32411  eV     1   --> A              
     e( 11 - 11) =      9.62850  eV     1   --> A              
     e( 12 - 12) =     13.15390  eV     1   --> A              
     e( 13 - 13) =     14.35887  eV     1   --> A              
     e( 14 - 14) =     15.75194  eV     1   --> A              
     e( 15 - 15) =     17.58365  eV     1   --> A              
     e( 16 - 16) =     17.98670  eV     1   --> A              

 **************************************************************************

 **************************************************************************

                    xk=(   0.45833,  -0.12028,   0.47221  )

     Band symmetry, C_1 (1)     point group:

     e(  1 -  1) =     -7.82627  eV     1   --> A              
     e(  2 -  2) =     -7.61708  eV     1   --> A              
     e(  3 -  3) =     -7.60530  eV     1   --> A              
     e(  4 -  4) =     -7.58713  eV     1   --> A              
     e(  5 -  5) =     -7.53628  eV     1   --> A              
     e(  6 -  6) =     -2.63174  eV     1   --> A              
     e(  7 -  7) =      1.02078  eV     1   --> A              
     e(  8 -  8) =      3.92890  eV     1   --> A              
     e(  9 -  9) =      4.08244  eV     1   --> A              
     e( 10 - 10) =      9.15944  eV     1   --> A              
     e( 11 - 11) =      9.48959  eV     1   --> A              
     e( 12 - 12) =     13.43550  eV     1   --> A              
     e( 13 - 13) =     14.49108  eV     1   --> A              
     e( 14 - 14) =     15.79647  eV     1   --> A              
     e( 15 - 15) =     17.57911  eV     1   --> A              
     e( 16 - 16) =     17.96445  eV     1   --> A              

 **************************************************************************

 **************************************************************************

                    xk=(   0.46250,  -0.13712,   0.46581  )

     Band symmetry, C_1 (1)     point group:

     e(  1 -  1) =     -7.82864  eV     1   --> A              
     e(  2 -  2) =     -7.61401  eV     1   --> A              
     e(  3 -  3) =     -7.60477  eV     1   --> A              
     e(  4 -  4) =     -7.58869  eV     1   --> A              
     e(  5 -  5) =     -7.53510  eV     1   --> A              
     e(  6 -  6) =     -2.62693  eV     1   --> A              
     e(  7 -  7) =      1.00006  eV     1   --> A              
     e(  8 -  8) =      3.98395  eV     1   --> A              
     e(  9 -  9) =      4.09931  eV     1   --> A              
     e( 10 - 10) =      9.00500  eV     1   --> A              
     e( 11 - 11) =      9.35637  eV     1   --> A              
     e( 12 - 12) =     13.71654  eV     1   --> A              
     e( 13 - 13) =     14.62462  eV     1   --> A              
     e( 14 - 14) =     15.83237  eV     1   --> A              
     e( 15 - 15) =     17.54333  eV     1   --> A              
     e( 16 - 16) =     17.97139  eV     1   --> A              

 **************************************************************************

 **************************************************************************

                    xk=(   0.46667,  -0.15396,   0.45942  )

     Band symmetry, C_1 (1)     point group:

     e(  1 -  1) =     -7.83094  eV     1   --> A              
     e(  2 -  2) =     -7.61102  eV     1   --> A              
     e(  3 -  3) =     -7.60424  eV     1   --> A              
     e(  4 -  4) =     -7.59021  eV     1   --> A              
     e(  5 -  5) =     -7.53396  eV     1   --> A              
     e(  6 -  6) =     -2.62225  eV     1   --> A              
     e(  7 -  7) =      0.97937  eV     1   --> A              
     e(  8 -  8) =      4.03677  eV     1   --> A              
     e(  9 -  9) =      4.12032  eV     1   --> A              
     e( 10 - 10) =      8.86213  eV     1   --> A              
     e( 11 - 11) =      9.23085  eV     1   --> A              
     e( 12 - 12) =     13.99338  eV     1   --> A              
     e( 13 - 13) =     14.75910  eV     1   --> A              
     e( 14 - 14) =     15.85830  eV     1   --> A              
     e( 15 - 15) =     17.49137  eV     1   --> A              
     e( 16 - 16) =     17.99366  eV     1   --> A              

 **************************************************************************

 **************************************************************************

                    xk=(   0.47083,  -0.17080,   0.45302  )

     Band symmetry, C_1 (1)     point group:

     e(  1 -  1) =     -7.83311  eV     1   --> A              
     e(  2 -  2) =     -7.60824  eV     1   --> A              
     e(  3 -  3) =     -7.60376  eV     1   --> A              
     e(  4 -  4) =     -7.59170  eV     1   --> A              
     e(  5 -  5) =     -7.53295  eV     1   --> A              
     e(  6 -  6) =     -2.61780  eV     1   --> A              
     e(  7 -  7) =      0.95933  eV     1   --> A              
     e(  8 -  8) =      4.08636  eV     1   --> A              
     e(  9 -  9) =      4.14416  eV     1   --> A              
     e( 10 - 10) =      8.73211  eV     1   --> A              
     e( 11 - 11) =      9.11485  eV     1   --> A              
     e( 12 - 12) =     14.26162  eV     1   --> A              
     e( 13 - 13) =     14.89463  eV     1   --> A              
     e( 14 - 14) =     15.87285  eV     1   --> A              
     e( 15 - 15) =     17.43528  eV     1   --> A              
     e( 16 - 16) =     18.02020  eV     1   --> A              

 **************************************************************************

 **************************************************************************

                    xk=(   0.47500,  -0.18764,   0.44662  )

     Band symmetry, C_1 (1)     point group:

     e(  1 -  1) =     -7.83511  eV     1   --> A              
     e(  2 -  2) =     -7.60580  eV     1   --> A              
     e(  3 -  3) =     -7.60321  eV     1   --> A              
     e(  4 -  4) =     -7.59305  eV     1   --> A              
     e(  5 -  5) =     -7.53215  eV     1   --> A              
     e(  6 -  6) =     -2.61369  eV     1   --> A              
     e(  7 -  7) =      0.94058  eV     1   --> A              
     e(  8 -  8) =      4.13171  eV     1   --> A              
     e(  9 -  9) =      4.16939  eV     1   --> A              
     e( 10 - 10) =      8.61617  eV     1   --> A              
     e( 11 - 11) =      9.01009  eV     1   --> A              
     e( 12 - 12) =     14.51551  eV     1   --> A              
     e( 13 - 13) =     15.03192  eV     1   --> A              
     e( 14 - 14) =     15.87479  eV     1   --> A              
     e( 15 - 15) =     17.38146  eV     1   --> A              
     e( 16 - 16) =     18.04526  eV     1   --> A              

 **************************************************************************

 **************************************************************************

                    xk=(   0.47917,  -0.20448,   0.44023  )

     Band symmetry, C_1 (1)     point group:

     e(  1 -  1) =     -7.83687  eV     1   --> A              
     e(  2 -  2) =     -7.60370  eV     1   --> A              
     e(  3 -  3) =     -7.60260  eV     1   --> A              
     e(  4 -  4) =     -7.59426  eV     1   --> A              
     e(  5 -  5) =     -7.53151  eV     1   --> A              
     e(  6 -  6) =     -2.61002  eV     1   --> A              
     e(  7 -  7) =      0.92367  eV     1   --> A              
     e(  8 -  8) =      4.17184  eV     1   --> A              
     e(  9 -  9) =      4.19453  eV     1   --> A              
     e( 10 - 10) =      8.51551  eV     1   --> A              
     e( 11 - 11) =      8.91815  eV     1   --> A              
     e( 12 - 12) =     14.74760  eV     1   --> A              
     e( 13 - 13) =     15.17215  eV     1   --> A              
     e( 14 - 14) =     15.86332  eV     1   --> A              
     e( 15 - 15) =     17.33278  eV     1   --> A              
     e( 16 - 16) =     18.06617  eV     1   --> A              

 **************************************************************************

 **************************************************************************

                    xk=(   0.48333,  -0.22132,   0.43383  )

     Band symmetry, C_1 (1)     point group:

     e(  1 -  1) =     -7.83831  eV     1   --> A              
     e(  2 -  2) =     -7.60225  eV     1   --> A              
     e(  3 -  3) =     -7.60167  eV     1   --> A              
     e(  4 -  4) =     -7.59537  eV     1   --> A              
     e(  5 -  5) =     -7.53083  eV     1   --> A              
     e(  6 -  6) =     -2.60687  eV     1   --> A              
     e(  7 -  7) =      0.90911  eV     1   --> A              
     e(  8 -  8) =      4.20583  eV     1   --> A              
     e(  9 -  9) =      4.21805  eV     1   --> A              
     e( 10 - 10) =      8.43130  eV     1   --> A              
     e( 11 - 11) =      8.84055  eV     1   --> A              
     e( 12 - 12) =     14.94974  eV     1   --> A              
     e( 13 - 13) =     15.31522  eV     1   --> A              
     e( 14 - 14) =     15.83843  eV     1   --> A              
     e( 15 - 15) =     17.29023  eV     1   --> A              
     e( 16 - 16) =     18.08175  eV     1   --> A              

 **************************************************************************

 **************************************************************************

                    xk=(   0.48750,  -0.23816,   0.42744  )

     Band symmetry, C_1 (1)     point group:

     e(  1 -  1) =     -7.83930  eV     1   --> A              
     e(  2 -  2) =     -7.60151  eV     1   --> A              
     e(  3 -  3) =     -7.60034  eV     1   --> A              
     e(  4 -  4) =     -7.59636  eV     1   --> A              
     e(  5 -  5) =     -7.53030  eV     1   --> A              
     e(  6 -  6) =     -2.60432  eV     1   --> A              
     e(  7 -  7) =      0.89732  eV     1   --> A              
     e(  8 -  8) =      4.23288  eV     1   --> A              
     e(  9 -  9) =      4.23847  eV     1   --> A              
     e( 10 - 10) =      8.36457  eV     1   --> A              
     e( 11 - 11) =      8.77861  eV     1   --> A              
     e( 12 - 12) =     15.11653  eV     1   --> A              
     e( 13 - 13) =     15.45529  eV     1   --> A              
     e( 14 - 14) =     15.80147  eV     1   --> A              
     e( 15 - 15) =     17.25412  eV     1   --> A              
     e( 16 - 16) =     18.09181  eV     1   --> A              

 **************************************************************************

 **************************************************************************

                    xk=(   0.49167,  -0.25500,   0.42104  )

     Band symmetry, C_1 (1)     point group:

     e(  1 -  1) =     -7.83999  eV     1   --> A              
     e(  2 -  2) =     -7.60085  eV     1   --> A              
     e(  3 -  3) =     -7.59917  eV     1   --> A              
     e(  4 -  4) =     -7.59721  eV     1   --> A              
     e(  5 -  5) =     -7.52977  eV     1   --> A              
     e(  6 -  6) =     -2.60245  eV     1   --> A              
     e(  7 -  7) =      0.88866  eV     1   --> A              
     e(  8 -  8) =      4.25244  eV     1   --> A              
     e(  9 -  9) =      4.25438  eV     1   --> A              
     e( 10 - 10) =      8.31621  eV     1   --> A              
     e( 11 - 11) =      8.73348  eV     1   --> A              
     e( 12 - 12) =     15.24724  eV     1   --> A              
     e( 13 - 13) =     15.57745  eV     1   --> A              
     e( 14 - 14) =     15.75629  eV     1   --> A              
     e( 15 - 15) =     17.22523  eV     1   --> A              
     e( 16 - 16) =     18.09711  eV     1   --> A              

 **************************************************************************

 **************************************************************************

                    xk=(   0.49583,  -0.27184,   0.41464  )

     Band symmetry, C_1 (1)     point group:

     e(  1 -  1) =     -7.84039  eV     1   --> A              
     e(  2 -  2) =     -7.60018  eV     1   --> A              
     e(  3 -  3) =     -7.59839  eV     1   --> A              
     e(  4 -  4) =     -7.59776  eV     1   --> A              
     e(  5 -  5) =     -7.52950  eV     1   --> A              
     e(  6 -  6) =     -2.60130  eV     1   --> A              
     e(  7 -  7) =      0.88337  eV     1   --> A              
     e(  8 -  8) =      4.26419  eV     1   --> A              
     e(  9 -  9) =      4.26457  eV     1   --> A              
     e( 10 - 10) =      8.28690  eV     1   --> A              
     e( 11 - 11) =      8.70603  eV     1   --> A              
     e( 12 - 12) =     15.33879  eV     1   --> A              
     e( 13 - 13) =     15.66190  eV     1   --> A              
     e( 14 - 14) =     15.71262  eV     1   --> A              
     e( 15 - 15) =     17.20574  eV     1   --> A              
     e( 16 - 16) =     18.09914  eV     1   --> A              

 **************************************************************************

 **************************************************************************

                    xk=(   0.50000,  -0.28868,   0.40825  )

     point group C_s (m)    
     there are  2 classes
     the character table:

       E     s    
A'     1.00  1.00
A''    1.00 -1.00

     the symmetry operations in each class and the name of the first element:

     E        1
                                                                 
     s        2
                                                                 

     Band symmetry, C_s (m)     point group:

     e(  1 -  1) =     -7.84043  eV     1   --> A'             
     e(  2 -  2) =     -7.59984  eV     1   --> A'             
     e(  3 -  4) =     -7.59806  eV     2   --> A'             
     e(  3 -  4) =     -7.59806  eV     2   --> A''            
     e(  5 -  5) =     -7.52927  eV     1   --> A''            
     e(  6 -  6) =     -2.60091  eV     1   --> A'             
     e(  7 -  7) =      0.88158  eV     1   --> A'             
     e(  8 -  9) =      4.26809  eV     2   --> A'             
     e(  8 -  9) =      4.26809  eV     2   --> A''            
     e( 10 - 10) =      8.27708  eV     1   --> A'             
     e( 11 - 11) =      8.69682  eV     1   --> A'             
     e( 12 - 12) =     15.37459  eV     1   --> A'             
     e( 13 - 14) =     15.69218  eV     2   --> A'             
     e( 13 - 14) =     15.69218  eV     2   --> A''            
     e( 15 - 15) =     17.19874  eV     1   --> A''            
     e( 16 - 16) =     18.09958  eV     1   -->   ?

 **************************************************************************

     BANDS        :     48.89s CPU   1m15.10s WALL


   This run was terminated on:   4:49:44  19Dec2024            

=------------------------------------------------------------------------------=
   JOB DONE.
=------------------------------------------------------------------------------=
