
     Program PWSCF v.7.0 starts on 19Dec2024 at  4:46:39 

     This program is part of the open-source Quantum ESPRESSO suite
     for quantum simulation of materials; please cite
         "P. Giannozzi et al., J. Phys.:Condens. Matter 21 395502 (2009);
         "P. Giannozzi et al., J. Phys.:Condens. Matter 29 465901 (2017);
         "P. Giannozzi et al., J. Chem. Phys. 152 154105 (2020);
          URL http://www.quantum-espresso.org", 
     in publications or presentations arising from this work. More details at
     http://www.quantum-espresso.org/quote

     Parallel version (MPI & OpenMP), running on       2 processor cores
     Number of MPI processes:                 2
     Threads/MPI process:                     1

     MPI processes distributed on     1 nodes
     R & G space division:  proc/nbgrp/npool/nimage =       2
     215 MiB available memory on the printing compute node when the environment starts

     Reading input from pw.bands.in

     Current dimensions of program PWSCF are:
     Max number of different atomic species (ntypx) = 10
     Max number of k-points (npk) =  40000
     Max angular momentum in pseudopotentials (lmaxx) =  4

     Atomic positions and unit cell read from directory:
     ./outputs/inp.save/
     Atomic positions from file used, from input discarded

     file P.pbe-n-kjpaw_psl.1.0.0.UPF: wavefunction(s)  3S 3P renormalized
     file In.pbe-dn-kjpaw_psl.1.0.0.UPF: wavefunction(s)  5S 5P 4D renormalized

     IMPORTANT: XC functional enforced from input :
     Exchange-correlation= PBE
                           (   1   4   3   4   0   0   0)
     Any further DFT definition will be discarded
     Please, verify this is what you really want

     Message from routine setup:
     using ibrav=0 with symmetry is DISCOURAGED, use correct ibrav instead

     Subspace diagonalization in iterative solution of the eigenvalue problem:
     a serial algorithm will be used


     Parallelization info
     --------------------
     sticks:   dense  smooth     PW     G-vecs:    dense   smooth      PW
     Min         429     429    126                 8444     8444    1365
     Max         430     430    127                 8445     8445    1368
     Sum         859     859    253                16889    16889    2733

     Using Slab Decomposition



     bravais-lattice index     =            0
     lattice parameter (alat)  =       7.9596  a.u.
     unit-cell volume          =     356.5817 (a.u.)^3
     number of atoms/cell      =            2
     number of atomic types    =            2
     number of electrons       =        18.00
     number of Kohn-Sham states=           16
     kinetic-energy cutoff     =      50.0000  Ry
     charge density cutoff     =     200.0000  Ry
     Exchange-correlation= PBE
                           (   1   4   3   4   0   0   0)

     celldm(1)=   7.959602  celldm(2)=   0.000000  celldm(3)=   0.000000
     celldm(4)=   0.000000  celldm(5)=   0.000000  celldm(6)=   0.000000

     crystal axes: (cart. coord. in units of alat)
               a(1) = (   1.000000   0.000000   0.000000 )  
               a(2) = (   0.500000   0.866025   0.000000 )  
               a(3) = (   0.500000   0.288675   0.816497 )  

     reciprocal axes: (cart. coord. in units 2 pi/alat)
               b(1) = (  1.000000 -0.577350 -0.408248 )  
               b(2) = (  0.000000  1.154701 -0.408248 )  
               b(3) = (  0.000000  0.000000  1.224745 )  


     PseudoPot. # 1 for P  read from file:
     ../Pseudopotentials/P.pbe-n-kjpaw_psl.1.0.0.UPF
     MD5 check sum: 06b8cad1975795032ee26009bb7624c7
     Pseudo is Projector augmented-wave + core cor, Zval =  5.0
     Generated using &quot;atomic&quot; code by A. Dal Corso  v.6.3
     Shape of augmentation charge: PSQ
     Using radial grid of 1147 points,  6 beta functions with: 
                l(1) =   0
                l(2) =   0
                l(3) =   1
                l(4) =   1
                l(5) =   2
                l(6) =   2
     Q(r) pseudized with 0 coefficients 


     PseudoPot. # 2 for In read from file:
     ../Pseudopotentials/In.pbe-dn-kjpaw_psl.1.0.0.UPF
     MD5 check sum: 235b15e6a7fdfd96486e0ecdcb5b12c6
     Pseudo is Projector augmented-wave + core cor, Zval = 13.0
     Generated using &quot;atomic&quot; code by A. Dal Corso  v.6.3
     Shape of augmentation charge: PSQ
     Using radial grid of 1241 points,  6 beta functions with: 
                l(1) =   0
                l(2) =   0
                l(3) =   1
                l(4) =   1
                l(5) =   2
                l(6) =   2
     Q(r) pseudized with 0 coefficients 


     atomic species   valence    mass     pseudopotential
        P              5.00    30.97300     P ( 1.00)
        In            13.00   114.81800     In( 1.00)

      6 Sym. Ops. (no inversion) found



   Cartesian axes

     site n.     atom                  positions (alat units)
         1           In  tau(   1) = (   0.0000000   0.0000000   0.0000000  )
         2           P   tau(   2) = (   1.5000000   0.8660254   0.6123724  )

     number of k points=   301  Marzari-Vanderbilt smearing, width (Ry)=  0.0050

     Number of k-points >= 100: set verbosity='high' to print them.

     Dense  grid:    16889 G-vectors     FFT dimensions: (  36,  36,  36)

     Estimated max dynamical RAM per process >      30.22 MB

     Estimated total dynamical RAM >      60.43 MB

     Check: negative core charge=   -0.000004

     The potential is recalculated from file :
     ./outputs/inp.save/charge-density

     Starting wfcs are   13 randomized atomic wfcs +    3 random wfcs
     Checking if some PAW data can be deallocated... 

     Band Structure Calculation
     Davidson diagonalization with overlap

     ethr =  5.56E-11,  avg # of iterations = 28.3

     total cpu time spent up to now is       73.8 secs

     End of band structure calculation

     Number of k-points >= 100: set verbosity='high' to print the bands.

     Writing all to output data dir ./outputs/inp.save/

     init_run     :      0.94s CPU      1.02s WALL (       1 calls)
     electrons    :     67.90s CPU     72.38s WALL (       1 calls)

     Called by init_run:
     wfcinit      :      0.00s CPU      0.00s WALL (       1 calls)
     potinit      :      0.18s CPU      0.18s WALL (       1 calls)
     hinit0       :      0.63s CPU      0.69s WALL (       1 calls)

     Called by electrons:
     c_bands      :     67.90s CPU     72.38s WALL (       1 calls)
     v_of_rho     :      0.01s CPU      0.01s WALL (       1 calls)
     newd         :      0.06s CPU      0.09s WALL (       1 calls)
     PAW_pot      :      0.17s CPU      0.17s WALL (       1 calls)

     Called by c_bands:
     init_us_2    :      0.12s CPU      0.13s WALL (     301 calls)
     init_us_2:cp :      0.12s CPU      0.13s WALL (     301 calls)
     cegterg      :     63.83s CPU     67.59s WALL (     568 calls)

     Called by *egterg:
     cdiaghg      :      4.78s CPU      5.03s WALL (    8824 calls)
     h_psi        :     45.22s CPU     66.45s WALL (    9392 calls)
     s_psi        :      2.55s CPU      2.69s WALL (    9392 calls)
     g_psi        :      0.88s CPU      0.92s WALL (    8523 calls)

     Called by h_psi:
     h_psi:calbec :      2.79s CPU      2.95s WALL (    9392 calls)
     vloc_psi     :     39.42s CPU     60.35s WALL (    9392 calls)
     add_vuspsi   :      2.78s CPU      2.91s WALL (    9392 calls)

     General routines
     calbec       :      2.76s CPU      2.93s WALL (    9392 calls)
     fft          :      0.36s CPU      0.38s WALL (      12 calls)
     fftw         :     34.75s CPU     55.43s WALL (  140822 calls)
     davcio       :      0.09s CPU      1.40s WALL (     602 calls)

     Parallel routines

     PWSCF        :   1m 9.16s CPU   1m16.36s WALL


   This run was terminated on:   4:47:56  19Dec2024            

=------------------------------------------------------------------------------=
   JOB DONE.
=------------------------------------------------------------------------------=
