
     Program PWSCF v.7.0 starts on 19Dec2024 at  4:45:39 

     This program is part of the open-source Quantum ESPRESSO suite
     for quantum simulation of materials; please cite
         "P. Giannozzi et al., J. Phys.:Condens. Matter 21 395502 (2009);
         "P. Giannozzi et al., J. Phys.:Condens. Matter 29 465901 (2017);
         "P. Giannozzi et al., J. Chem. Phys. 152 154105 (2020);
          URL http://www.quantum-espresso.org", 
     in publications or presentations arising from this work. More details at
     http://www.quantum-espresso.org/quote

     Parallel version (MPI & OpenMP), running on       2 processor cores
     Number of MPI processes:                 2
     Threads/MPI process:                     1

     MPI processes distributed on     1 nodes
     R & G space division:  proc/nbgrp/npool/nimage =       2
     215 MiB available memory on the printing compute node when the environment starts

     Reading input from pw.scf.in

     Current dimensions of program PWSCF are:
     Max number of different atomic species (ntypx) = 10
     Max number of k-points (npk) =  40000
     Max angular momentum in pseudopotentials (lmaxx) =  4
     file P.pbe-n-kjpaw_psl.1.0.0.UPF: wavefunction(s)  3S 3P renormalized
     file In.pbe-dn-kjpaw_psl.1.0.0.UPF: wavefunction(s)  5S 5P 4D renormalized

     IMPORTANT: XC functional enforced from input :
     Exchange-correlation= PBE
                           (   1   4   3   4   0   0   0)
     Any further DFT definition will be discarded
     Please, verify this is what you really want

     Message from routine setup:
     using ibrav=0 with symmetry is DISCOURAGED, use correct ibrav instead

     Subspace diagonalization in iterative solution of the eigenvalue problem:
     a serial algorithm will be used


     Parallelization info
     --------------------
     sticks:   dense  smooth     PW     G-vecs:    dense   smooth      PW
     Min         429     429    126                 8444     8444    1369
     Max         430     430    127                 8445     8445    1372
     Sum         859     859    253                16889    16889    2741

     Using Slab Decomposition



     bravais-lattice index     =            0
     lattice parameter (alat)  =       7.9596  a.u.
     unit-cell volume          =     356.5817 (a.u.)^3
     number of atoms/cell      =            2
     number of atomic types    =            2
     number of electrons       =        18.00
     number of Kohn-Sham states=           13
     kinetic-energy cutoff     =      50.0000  Ry
     charge density cutoff     =     200.0000  Ry
     scf convergence threshold =      1.0E-08
     mixing beta               =       0.7000
     number of iterations used =            8  plain     mixing
     Exchange-correlation= PBE
                           (   1   4   3   4   0   0   0)

     celldm(1)=   7.959602  celldm(2)=   0.000000  celldm(3)=   0.000000
     celldm(4)=   0.000000  celldm(5)=   0.000000  celldm(6)=   0.000000

     crystal axes: (cart. coord. in units of alat)
               a(1) = (   1.000000   0.000000   0.000000 )  
               a(2) = (   0.500000   0.866025   0.000000 )  
               a(3) = (   0.500000   0.288675   0.816497 )  

     reciprocal axes: (cart. coord. in units 2 pi/alat)
               b(1) = (  1.000000 -0.577350 -0.408248 )  
               b(2) = (  0.000000  1.154701 -0.408248 )  
               b(3) = (  0.000000  0.000000  1.224745 )  


     PseudoPot. # 1 for P  read from file:
     ../Pseudopotentials/P.pbe-n-kjpaw_psl.1.0.0.UPF
     MD5 check sum: 06b8cad1975795032ee26009bb7624c7
     Pseudo is Projector augmented-wave + core cor, Zval =  5.0
     Generated using &quot;atomic&quot; code by A. Dal Corso  v.6.3
     Shape of augmentation charge: PSQ
     Using radial grid of 1147 points,  6 beta functions with: 
                l(1) =   0
                l(2) =   0
                l(3) =   1
                l(4) =   1
                l(5) =   2
                l(6) =   2
     Q(r) pseudized with 0 coefficients 


     PseudoPot. # 2 for In read from file:
     ../Pseudopotentials/In.pbe-dn-kjpaw_psl.1.0.0.UPF
     MD5 check sum: 235b15e6a7fdfd96486e0ecdcb5b12c6
     Pseudo is Projector augmented-wave + core cor, Zval = 13.0
     Generated using &quot;atomic&quot; code by A. Dal Corso  v.6.3
     Shape of augmentation charge: PSQ
     Using radial grid of 1241 points,  6 beta functions with: 
                l(1) =   0
                l(2) =   0
                l(3) =   1
                l(4) =   1
                l(5) =   2
                l(6) =   2
     Q(r) pseudized with 0 coefficients 


     atomic species   valence    mass     pseudopotential
        P              5.00    30.97300     P ( 1.00)
        In            13.00   114.81800     In( 1.00)

      6 Sym. Ops. (no inversion) found



   Cartesian axes

     site n.     atom                  positions (alat units)
         1           In  tau(   1) = (   0.0000000   0.0000000   0.0000000  )
         2           P   tau(   2) = (   1.5000000   0.8660254   0.6123724  )

     number of k points=    44  Marzari-Vanderbilt smearing, width (Ry)=  0.0050
                       cart. coord. in units 2pi/alat
        k(    1) = (   0.0000000   0.0000000   0.0000000), wk =   0.0058309
        k(    2) = (   0.0000000   0.0000000   0.1749636), wk =   0.0116618
        k(    3) = (   0.0000000   0.0000000   0.3499271), wk =   0.0116618
        k(    4) = (   0.0000000   0.0000000   0.5248907), wk =   0.0116618
        k(    5) = (   0.0000000   0.1649572  -0.0583212), wk =   0.0349854
        k(    6) = (   0.0000000   0.1649572   0.1166424), wk =   0.0349854
        k(    7) = (   0.0000000   0.1649572   0.2916059), wk =   0.0349854
        k(    8) = (   0.0000000   0.1649572   0.4665695), wk =   0.0349854
        k(    9) = (   0.0000000   0.1649572  -0.5832118), wk =   0.0349854
        k(   10) = (   0.0000000   0.1649572  -0.4082483), wk =   0.0349854
        k(   11) = (   0.0000000   0.1649572  -0.2332847), wk =   0.0349854
        k(   12) = (   0.0000000   0.3299144  -0.1166424), wk =   0.0349854
        k(   13) = (   0.0000000   0.3299144   0.0583212), wk =   0.0349854
        k(   14) = (   0.0000000   0.3299144   0.2332847), wk =   0.0349854
        k(   15) = (   0.0000000   0.3299144   0.4082483), wk =   0.0349854
        k(   16) = (   0.0000000   0.3299144  -0.6415330), wk =   0.0349854
        k(   17) = (   0.0000000   0.3299144  -0.4665695), wk =   0.0349854
        k(   18) = (   0.0000000   0.3299144  -0.2916059), wk =   0.0349854
        k(   19) = (   0.0000000   0.4948717  -0.1749636), wk =   0.0349854
        k(   20) = (   0.0000000   0.4948717   0.0000000), wk =   0.0349854
        k(   21) = (   0.0000000   0.4948717   0.1749636), wk =   0.0349854
        k(   22) = (   0.0000000   0.4948717   0.3499271), wk =   0.0349854
        k(   23) = (   0.0000000   0.4948717  -0.6998542), wk =   0.0349854
        k(   24) = (   0.0000000   0.4948717  -0.5248907), wk =   0.0349854
        k(   25) = (   0.0000000   0.4948717  -0.3499271), wk =   0.0349854
        k(   26) = (   0.1428571   0.2474358  -0.1749636), wk =   0.0699708
        k(   27) = (   0.1428571   0.2474358   0.0000000), wk =   0.0349854
        k(   28) = (   0.1428571   0.2474358   0.3499271), wk =   0.0699708
        k(   29) = (   0.1428571   0.2474358  -0.6998542), wk =   0.0699708
        k(   30) = (   0.1428571   0.4123930  -0.2332847), wk =   0.0699708
        k(   31) = (   0.1428571   0.4123930  -0.0583212), wk =   0.0699708
        k(   32) = (   0.1428571   0.4123930   0.1166424), wk =   0.0699708
        k(   33) = (   0.1428571   0.4123930   0.2916059), wk =   0.0699708
        k(   34) = (   0.1428571   0.4123930  -0.7581754), wk =   0.0699708
        k(   35) = (   0.1428571   0.4123930  -0.5832118), wk =   0.0699708
        k(   36) = (   0.1428571   0.4123930  -0.4082483), wk =   0.0699708
        k(   37) = (   0.1428571  -0.5773503   0.1166424), wk =   0.0699708
        k(   38) = (   0.1428571  -0.5773503   0.4665695), wk =   0.0699708
        k(   39) = (   0.1428571  -0.5773503   0.6415330), wk =   0.0699708
        k(   40) = (   0.1428571  -0.5773503  -0.4082483), wk =   0.0349854
        k(   41) = (   0.2857143  -0.6598289   0.0583212), wk =   0.0699708
        k(   42) = (   0.2857143  -0.6598289   0.2332847), wk =   0.0699708
        k(   43) = (   0.2857143  -0.6598289   0.4082483), wk =   0.0349854
        k(   44) = (   0.2857143  -0.6598289  -0.2916059), wk =   0.0699708

     Dense  grid:    16889 G-vectors     FFT dimensions: (  36,  36,  36)

     Estimated max dynamical RAM per process >      43.63 MB

     Estimated total dynamical RAM >      87.25 MB

     Check: negative core charge=   -0.000004

     Initial potential from superposition of free atoms

     starting charge      17.9961, renormalised to      18.0000
     Starting wfcs are   13 randomized atomic wfcs
     Checking if some PAW data can be deallocated... 

     total cpu time spent up to now is        2.3 secs

     per-process dynamical memory:    42.4 Mb

     Self-consistent Calculation

     iteration #  1     ecut=    50.00 Ry     beta= 0.70
     Davidson diagonalization with overlap
     ethr =  1.00E-02,  avg # of iterations =  4.0

     Threshold (ethr) on eigenvalues was too large:
     Diagonalizing with lowered threshold

     Davidson diagonalization with overlap
     ethr =  5.79E-04,  avg # of iterations =  1.3

     total cpu time spent up to now is        6.1 secs

     total energy              =    -466.29884211 Ry
     estimated scf accuracy    <       0.10393860 Ry

     iteration #  2     ecut=    50.00 Ry     beta= 0.70
     Davidson diagonalization with overlap
     ethr =  5.77E-04,  avg # of iterations =  2.0

     total cpu time spent up to now is        8.0 secs

     WARNING: integrated charge=    18.00044395, expected=    18.00000000

     total energy              =    -466.32440289 Ry
     estimated scf accuracy    <       0.04585335 Ry

     iteration #  3     ecut=    50.00 Ry     beta= 0.70
     Davidson diagonalization with overlap
     ethr =  2.55E-04,  avg # of iterations =  2.0

     total cpu time spent up to now is        9.9 secs

     WARNING: integrated charge=    18.00008616, expected=    18.00000000

     total energy              =    -466.33529711 Ry
     estimated scf accuracy    <       0.00064133 Ry

     iteration #  4     ecut=    50.00 Ry     beta= 0.70
     Davidson diagonalization with overlap
     ethr =  3.56E-06,  avg # of iterations =  3.6

     total cpu time spent up to now is       12.4 secs

     WARNING: integrated charge=    18.00002743, expected=    18.00000000

     total energy              =    -466.33544020 Ry
     estimated scf accuracy    <       0.00002988 Ry

     iteration #  5     ecut=    50.00 Ry     beta= 0.70
     Davidson diagonalization with overlap
     ethr =  1.66E-07,  avg # of iterations =  2.0

     total cpu time spent up to now is       14.1 secs

     WARNING: integrated charge=    18.00000359, expected=    18.00000000

     total energy              =    -466.33544427 Ry
     estimated scf accuracy    <       0.00000097 Ry

     iteration #  6     ecut=    50.00 Ry     beta= 0.70
     Davidson diagonalization with overlap
     ethr =  5.38E-09,  avg # of iterations =  3.0

     total cpu time spent up to now is        1.3 secs

     total energy              =    -466.33544472 Ry
     estimated scf accuracy    <       0.00000025 Ry

     iteration #  7     ecut=    50.00 Ry     beta= 0.70
     Davidson diagonalization with overlap
     ethr =  1.37E-09,  avg # of iterations =  2.0

     total cpu time spent up to now is        3.1 secs

     End of self-consistent calculation

          k = 0.0000 0.0000 0.0000 (  2109 PWs)   bands (ev):

    -7.6855  -7.6855  -7.6855  -7.5586  -7.5586  -4.7683   6.4370   6.4370
     6.4370   6.8795  10.5142  10.5142  10.5142

          k = 0.0000 0.0000 0.1750 (  2112 PWs)   bands (ev):

    -7.7047  -7.6777  -7.6777  -7.5584  -7.5584  -4.5542   4.6184   6.2195
     6.2195   7.9832  10.7153  10.8411  10.8411

          k = 0.0000 0.0000 0.3499 (  2127 PWs)   bands (ev):

    -7.7466  -7.6626  -7.6626  -7.5551  -7.5551  -3.9751   2.6012   5.8244
     5.8244   8.0382  11.2440  11.2440  12.0297

          k = 0.0000 0.0000 0.5249 (  2123 PWs)   bands (ev):

    -7.7784  -7.6539  -7.6539  -7.5483  -7.5483  -3.3232   1.1680   5.5652
     5.5652   7.8437  11.2467  11.2467  13.3046

          k = 0.0000 0.1650-0.0583 (  2112 PWs)   bands (ev):

    -7.7047  -7.6777  -7.6777  -7.5584  -7.5584  -4.5542   4.6184   6.2195
     6.2195   7.9832  10.7153  10.8411  10.8411

          k = 0.0000 0.1650 0.1166 (  2125 PWs)   bands (ev):

    -7.7197  -7.6700  -7.6700  -7.5650  -7.5531  -4.4834   4.5942   5.8438
     5.8438   8.6252   9.7641  11.3855  11.3855

          k = 0.0000 0.1650 0.2916 (  2127 PWs)   bands (ev):

    -7.7532  -7.6565  -7.6533  -7.5688  -7.5480  -4.0233   3.0863   5.3484
     5.4090   8.9928  10.0061  11.8661  12.0174

          k = 0.0000 0.1650 0.4666 (  2115 PWs)   bands (ev):

    -7.7812  -7.6492  -7.6426  -7.5629  -7.5440  -3.3597   1.5649   4.7913
     5.2095   8.8246  10.7336  12.0144  12.4700

          k = 0.0000 0.1650-0.5832 (  2128 PWs)   bands (ev):

    -7.7878  -7.6483  -7.6427  -7.5538  -7.5487  -3.0793   1.0560   4.4728
     5.3310   8.7777  10.8999  11.7537  13.4270

          k = 0.0000 0.1650-0.4082 (  2134 PWs)   bands (ev):

    -7.7677  -7.6523  -7.6519  -7.5593  -7.5508  -3.5832   2.0178   4.5507
     5.7150   8.8927  11.1740  11.5018  12.1569

          k = 0.0000 0.1650-0.2333 (  2119 PWs)   bands (ev):

    -7.7326  -7.6687  -7.6625  -7.5626  -7.5533  -4.2164   3.5432   5.1923
     6.1416   8.7391  10.6578  11.0310  11.6417

          k = 0.0000 0.3299-0.1166 (  2127 PWs)   bands (ev):

    -7.7466  -7.6626  -7.6626  -7.5551  -7.5551  -3.9751   2.6012   5.8244
     5.8244   8.0382  11.2440  11.2440  12.0297

          k = 0.0000 0.3299 0.0583 (  2127 PWs)   bands (ev):

    -7.7532  -7.6565  -7.6533  -7.5688  -7.5480  -4.0233   3.0863   5.3484
     5.4090   8.9928  10.0061  11.8661  12.0174

          k = 0.0000 0.3299 0.2333 (  2121 PWs)   bands (ev):

    -7.7866  -7.6331  -7.6331  -7.5821  -7.5409  -3.7087   2.6602   4.9110
     4.9110   8.7537   9.4079  13.1776  13.1777

          k = 0.0000 0.3299 0.4082 (  2128 PWs)   bands (ev):

    -7.8090  -7.6243  -7.6194  -7.5843  -7.5372  -3.1496   1.6670   4.2179
     4.6674   8.8257   9.7269  12.8753  13.6047

          k = 0.0000 0.3299-0.6415 (  2140 PWs)   bands (ev):

    -7.8081  -7.6320  -7.6188  -7.5740  -7.5434  -2.7552   1.1011   3.4997
     4.7864   8.9551  11.0307  13.0284  13.1941

          k = 0.0000 0.3299-0.4666 (  2141 PWs)   bands (ev):

    -7.7906  -7.6428  -7.6315  -7.5594  -7.5555  -3.0188   1.4395   3.4763
     5.2165   9.2567  11.4695  12.4454  12.5165

          k = 0.0000 0.3299-0.2916 (  2134 PWs)   bands (ev):

    -7.7677  -7.6523  -7.6519  -7.5593  -7.5508  -3.5832   2.0178   4.5507
     5.7150   8.8927  11.1740  11.5018  12.1569

          k = 0.0000 0.4949-0.1750 (  2123 PWs)   bands (ev):

    -7.7784  -7.6539  -7.6539  -7.5483  -7.5483  -3.3232   1.1680   5.5652
     5.5652   7.8437  11.2467  11.2467  13.3046

          k = 0.0000 0.4949 0.0000 (  2115 PWs)   bands (ev):

    -7.7812  -7.6492  -7.6426  -7.5629  -7.5440  -3.3597   1.5649   4.7913
     5.2095   8.8246  10.7336  12.0144  12.4700

          k = 0.0000 0.4949 0.1750 (  2128 PWs)   bands (ev):

    -7.8090  -7.6243  -7.6194  -7.5843  -7.5372  -3.1496   1.6670   4.2179
     4.6674   8.8257   9.7269  12.8753  13.6047

          k = 0.0000 0.4949 0.3499 (  2124 PWs)   bands (ev):

    -7.8340  -7.6029  -7.6029  -7.5977  -7.5307  -2.7897   1.1465   4.3429
     4.3429   8.3131   8.8236  14.9880  15.1588

          k = 0.0000 0.4949-0.6999 (  2133 PWs)   bands (ev):

    -7.8319  -7.6102  -7.6024  -7.5914  -7.5337  -2.5860   0.9285   3.7825
     4.3889   8.5632   9.4695  14.4795  14.7782

          k = 0.0000 0.4949-0.5249 (  2140 PWs)   bands (ev):

    -7.8081  -7.6320  -7.6188  -7.5740  -7.5434  -2.7552   1.1011   3.4997
     4.7864   8.9551  11.0307  13.0284  13.1941

          k = 0.0000 0.4949-0.3499 (  2128 PWs)   bands (ev):

    -7.7878  -7.6483  -7.6427  -7.5538  -7.5487  -3.0793   1.0560   4.4728
     5.3310   8.7777  10.8999  11.7537  13.4270

          k = 0.1429 0.2474-0.1750 (  2127 PWs)   bands (ev):

    -7.7532  -7.6565  -7.6533  -7.5688  -7.5480  -4.0233   3.0863   5.3484
     5.4090   8.9928  10.0061  11.8661  12.0174

          k = 0.1429 0.2474 0.0000 (  2119 PWs)   bands (ev):

    -7.7326  -7.6687  -7.6625  -7.5626  -7.5533  -4.2164   3.5432   5.1923
     6.1416   8.7391  10.6578  11.0310  11.6417

          k = 0.1429 0.2474 0.3499 (  2128 PWs)   bands (ev):

    -7.7815  -7.6447  -7.6359  -7.5725  -7.5442  -3.5050   2.1737   4.2696
     5.1909   9.6356  10.0290  11.5761  13.0082

          k = 0.1429 0.2474-0.6999 (  2127 PWs)   bands (ev):

    -7.7971  -7.6427  -7.6240  -7.5676  -7.5464  -2.9390   1.2698   3.7597
     4.8081   9.6921  10.6560  11.8724  13.5586

          k = 0.1429 0.4124-0.2333 (  2115 PWs)   bands (ev):

    -7.7812  -7.6492  -7.6426  -7.5629  -7.5440  -3.3597   1.5649   4.7913
     5.2095   8.8246  10.7336  12.0144  12.4700

          k = 0.1429 0.4124-0.0583 (  2134 PWs)   bands (ev):

    -7.7677  -7.6523  -7.6519  -7.5593  -7.5508  -3.5832   2.0178   4.5507
     5.7150   8.8927  11.1740  11.5018  12.1569

          k = 0.1429 0.4124 0.1166 (  2128 PWs)   bands (ev):

    -7.7815  -7.6447  -7.6359  -7.5725  -7.5442  -3.5050   2.1737   4.2696
     5.1909   9.6356  10.0290  11.5761  13.0082

          k = 0.1429 0.4124 0.2916 (  2128 PWs)   bands (ev):

    -7.8090  -7.6243  -7.6194  -7.5843  -7.5372  -3.1496   1.6670   4.2179
     4.6674   8.8257   9.7269  12.8753  13.6047

          k = 0.1429 0.4124-0.7582 (  2144 PWs)   bands (ev):

    -7.8196  -7.6237  -7.6078  -7.5839  -7.5383  -2.7131   1.1389   3.8433
     4.1646   9.4549   9.7396  12.7224  14.4882

          k = 0.1429 0.4124-0.5832 (  2137 PWs)   bands (ev):

    -7.8108  -7.6351  -7.6084  -7.5746  -7.5459  -2.6026   1.0557   3.4013
     4.2413   9.8105  11.0217  12.2155  13.1718

          k = 0.1429 0.4124-0.4082 (  2127 PWs)   bands (ev):

    -7.7971  -7.6427  -7.6240  -7.5676  -7.5464  -2.9390   1.2698   3.7597
     4.8081   9.6921  10.6560  11.8724  13.5586

          k = 0.1429-0.5774 0.1166 (  2128 PWs)   bands (ev):

    -7.7878  -7.6483  -7.6427  -7.5538  -7.5487  -3.0793   1.0560   4.4728
     5.3310   8.7777  10.8999  11.7537  13.4270

          k = 0.1429-0.5774 0.4666 (  2127 PWs)   bands (ev):

    -7.7971  -7.6427  -7.6240  -7.5676  -7.5464  -2.9390   1.2698   3.7597
     4.8081   9.6921  10.6560  11.8724  13.5586

          k = 0.1429-0.5774 0.6415 (  2144 PWs)   bands (ev):

    -7.8196  -7.6237  -7.6078  -7.5839  -7.5383  -2.7131   1.1389   3.8433
     4.1646   9.4549   9.7396  12.7224  14.4883

          k = 0.1429-0.5774-0.4082 (  2133 PWs)   bands (ev):

    -7.8319  -7.6102  -7.6024  -7.5914  -7.5337  -2.5860   0.9285   3.7825
     4.3889   8.5632   9.4695  14.4795  14.7782

          k = 0.2857-0.6598 0.0583 (  2140 PWs)   bands (ev):

    -7.8081  -7.6320  -7.6188  -7.5740  -7.5434  -2.7552   1.1011   3.4997
     4.7864   8.9551  11.0307  13.0284  13.1941

          k = 0.2857-0.6598 0.2333 (  2127 PWs)   bands (ev):

    -7.7971  -7.6427  -7.6240  -7.5676  -7.5464  -2.9390   1.2698   3.7597
     4.8081   9.6921  10.6560  11.8724  13.5586

          k = 0.2857-0.6598 0.4082 (  2141 PWs)   bands (ev):

    -7.7906  -7.6428  -7.6315  -7.5594  -7.5555  -3.0188   1.4395   3.4763
     5.2165   9.2567  11.4695  12.4454  12.5165

          k = 0.2857-0.6598-0.2916 (  2137 PWs)   bands (ev):

    -7.8108  -7.6351  -7.6084  -7.5746  -7.5459  -2.6026   1.0557   3.4013
     4.2413   9.8105  11.0217  12.2155  13.1718

     the Fermi energy is     6.7099 ev

!    total energy              =    -466.33544478 Ry

     total all-electron energy =    -12447.690605 Ry
     estimated scf accuracy    <          8.4E-10 Ry
     smearing contrib. (-TS)   =       0.00000000 Ry
     internal energy E=F+TS    =    -466.33544478 Ry

     The total energy is F=E-TS. E is the sum of the following terms:
     one-electron contribution =     -52.53144032 Ry
     hartree contribution      =      39.72104965 Ry
     xc contribution           =     -50.59286382 Ry
     ewald contribution        =     -88.27860431 Ry
     one-center paw contrib.   =    -314.65358598 Ry

     convergence has been achieved in   7 iterations

     Forces acting on atoms (cartesian axes, Ry/au):

     atom    1 type  2   force =     0.00000000    0.00000000   -0.00000353
     atom    2 type  1   force =     0.00000000    0.00000000    0.00000353

     Total force =     0.000005     Total SCF correction =     0.000002
     SCF correction compared to forces is large: reduce conv_thr to get better values


     Computing stress (Cartesian axis) and pressure

          total   stress  (Ry/bohr**3)                   (kbar)     P=       -6.63
  -0.00004509  -0.00000000   0.00000000           -6.63       -0.00        0.00
  -0.00000000  -0.00004509   0.00000000           -0.00       -6.63        0.00
  -0.00000000   0.00000000  -0.00004509           -0.00        0.00       -6.63


     Writing all to output data dir ./outputs/inp.save/

     init_run     :      1.49s CPU      2.02s WALL (       1 calls)
     electrons    :     13.79s CPU      0.88s WALL (       1 calls)
     forces       :      0.19s CPU      0.31s WALL (       1 calls)
     stress       :      0.90s CPU      1.12s WALL (       1 calls)

     Called by init_run:
     wfcinit      :      0.53s CPU      0.69s WALL (       1 calls)
     potinit      :      0.16s CPU      0.31s WALL (       1 calls)
     hinit0       :      0.70s CPU      0.89s WALL (       1 calls)

     Called by electrons:
     c_bands      :      9.95s CPU     -3.82s WALL (       8 calls)
     sum_band     :      2.33s CPU      3.09s WALL (       8 calls)
     v_of_rho     :      0.09s CPU      0.11s WALL (       8 calls)
     newd         :      0.46s CPU      0.51s WALL (       8 calls)
     PAW_pot      :      1.15s CPU      1.30s WALL (       8 calls)
     mix_rho      :      0.01s CPU      0.01s WALL (       8 calls)

     Called by c_bands:
     init_us_2    :      0.32s CPU      0.42s WALL (     836 calls)
     init_us_2:cp :      0.32s CPU      0.42s WALL (     836 calls)
     cegterg      :      9.36s CPU     -4.46s WALL (     352 calls)

     Called by *egterg:
     cdiaghg      :      0.32s CPU      0.36s WALL (    1183 calls)
     h_psi        :      7.77s CPU     -6.19s WALL (    1271 calls)
     s_psi        :      0.44s CPU      0.48s WALL (    1271 calls)
     g_psi        :      0.11s CPU      0.12s WALL (     875 calls)

     Called by h_psi:
     h_psi:calbec :      0.48s CPU      0.52s WALL (    1271 calls)
     vloc_psi     :      6.80s CPU     -7.27s WALL (    1271 calls)
     add_vuspsi   :      0.45s CPU      0.52s WALL (    1271 calls)

     General routines
     calbec       :      0.75s CPU      0.86s WALL (    1843 calls)
     fft          :      0.38s CPU      0.48s WALL (     114 calls)
     ffts         :      0.00s CPU      0.00s WALL (       8 calls)
     fftw         :      7.28s CPU     -6.36s WALL (   28714 calls)

     Parallel routines

     PWSCF        :     16.71s CPU      4.69s WALL


   This run was terminated on:   4:45:44  19Dec2024            

=------------------------------------------------------------------------------=
   JOB DONE.
=------------------------------------------------------------------------------=
