
     Program PWSCF v.7.0 starts on 12Dec2024 at  8:26:11 

     This program is part of the open-source Quantum ESPRESSO suite
     for quantum simulation of materials; please cite
         "P. Giannozzi et al., J. Phys.:Condens. Matter 21 395502 (2009);
         "P. Giannozzi et al., J. Phys.:Condens. Matter 29 465901 (2017);
         "P. Giannozzi et al., J. Chem. Phys. 152 154105 (2020);
          URL http://www.quantum-espresso.org", 
     in publications or presentations arising from this work. More details at
     http://www.quantum-espresso.org/quote

     Parallel version (MPI & OpenMP), running on       2 processor cores
     Number of MPI processes:                 1
     Threads/MPI process:                     2

     MPI processes distributed on     1 nodes
     149 MiB available memory on the printing compute node when the environment starts

     Reading input from basic.in

     Current dimensions of program PWSCF are:
     Max number of different atomic species (ntypx) = 10
     Max number of k-points (npk) =  40000
     Max angular momentum in pseudopotentials (lmaxx) =  4
     file Si.pbe-n-kjpaw_psl.1.0.0.UPF: wavefunction(s)  3S 3P renormalized

     IMPORTANT: XC functional enforced from input :
     Exchange-correlation= PBE
                           (   1   4   3   4   0   0   0)
     Any further DFT definition will be discarded
     Please, verify this is what you really want

     Found identity + (  0.0000  0.5000 -0.5000) symmetry
     This is a supercell, fractional translations are disabled
     Message from routine setup:
     using ibrav=0 with symmetry is DISCOURAGED, use correct ibrav instead

     Subspace diagonalization in iterative solution of the eigenvalue problem:
     a serial algorithm will be used


     G-vector sticks info
     --------------------
     sticks:   dense  smooth     PW     G-vecs:    dense   smooth      PW
     Sum        3061    2029    577               127171    69239   10251

     Using Slab Decomposition



     bravais-lattice index     =            0
     lattice parameter (alat)  =      10.3344  a.u.
     unit-cell volume          =    1103.7127 (a.u.)^3
     number of atoms/cell      =            8
     number of atomic types    =            1
     number of electrons       =        32.00
     number of Kohn-Sham states=           20
     kinetic-energy cutoff     =      60.0000  Ry
     charge density cutoff     =     360.0000  Ry
     scf convergence threshold =      1.0E-08
     mixing beta               =       0.7000
     number of iterations used =            8  plain     mixing
     Exchange-correlation= PBE
                           (   1   4   3   4   0   0   0)

     celldm(1)=  10.334402  celldm(2)=   0.000000  celldm(3)=   0.000000
     celldm(4)=   0.000000  celldm(5)=   0.000000  celldm(6)=   0.000000

     crystal axes: (cart. coord. in units of alat)
               a(1) = (   1.000000   0.000000   0.000000 )  
               a(2) = (   0.000000   1.000000   0.000000 )  
               a(3) = (   0.000000   0.000000   1.000000 )  

     reciprocal axes: (cart. coord. in units 2 pi/alat)
               b(1) = (  1.000000  0.000000  0.000000 )  
               b(2) = (  0.000000  1.000000  0.000000 )  
               b(3) = (  0.000000  0.000000  1.000000 )  


     PseudoPot. # 1 for Si read from file:
     ./Si.pbe-n-kjpaw_psl.1.0.0.UPF
     MD5 check sum: c39c59da582df4a0d9f10159256ea34e
     Pseudo is Projector augmented-wave + core cor, Zval =  4.0
     Generated using &quot;atomic&quot; code by A. Dal Corso  v.6.3
     Shape of augmentation charge: PSQ
     Using radial grid of 1141 points,  6 beta functions with: 
                l(1) =   0
                l(2) =   0
                l(3) =   1
                l(4) =   1
                l(5) =   2
                l(6) =   2
     Q(r) pseudized with 0 coefficients 


     atomic species   valence    mass     pseudopotential
        Si             4.00    28.08500     Si( 1.00)

     24 Sym. Ops. (no inversion) found



   Cartesian axes

     site n.     atom                  positions (alat units)
         1           Si  tau(   1) = (   0.2500000   0.7500000   0.2500000  )
         2           Si  tau(   2) = (   0.0000000   0.0000000   0.5000000  )
         3           Si  tau(   3) = (   0.2500000   0.2500000   0.7500000  )
         4           Si  tau(   4) = (   0.0000000   0.5000000   0.0000000  )
         5           Si  tau(   5) = (   0.7500000   0.7500000   0.7500000  )
         6           Si  tau(   6) = (   0.5000000   0.0000000   0.0000000  )
         7           Si  tau(   7) = (   0.7500000   0.2500000   0.2500000  )
         8           Si  tau(   8) = (   0.5000000   0.5000000   0.5000000  )

     number of k points=    20  Marzari-Vanderbilt smearing, width (Ry)=  0.0050
                       cart. coord. in units 2pi/alat
        k(    1) = (   0.0000000   0.0000000   0.0000000), wk =   0.0058309
        k(    2) = (   0.0000000   0.0000000   0.1428571), wk =   0.0349854
        k(    3) = (   0.0000000   0.0000000   0.2857143), wk =   0.0349854
        k(    4) = (   0.0000000   0.0000000   0.4285714), wk =   0.0349854
        k(    5) = (   0.0000000   0.1428571   0.1428571), wk =   0.0699708
        k(    6) = (   0.0000000   0.1428571   0.2857143), wk =   0.1399417
        k(    7) = (   0.0000000   0.1428571   0.4285714), wk =   0.1399417
        k(    8) = (   0.0000000   0.2857143   0.2857143), wk =   0.0699708
        k(    9) = (   0.0000000   0.2857143   0.4285714), wk =   0.1399417
        k(   10) = (   0.0000000   0.4285714   0.4285714), wk =   0.0699708
        k(   11) = (   0.1428571   0.1428571   0.1428571), wk =   0.0466472
        k(   12) = (   0.1428571   0.1428571   0.2857143), wk =   0.1399417
        k(   13) = (   0.1428571   0.1428571   0.4285714), wk =   0.1399417
        k(   14) = (   0.1428571   0.2857143   0.2857143), wk =   0.1399417
        k(   15) = (   0.1428571   0.2857143   0.4285714), wk =   0.2798834
        k(   16) = (   0.1428571   0.4285714   0.4285714), wk =   0.1399417
        k(   17) = (   0.2857143   0.2857143   0.2857143), wk =   0.0466472
        k(   18) = (   0.2857143   0.2857143   0.4285714), wk =   0.1399417
        k(   19) = (   0.2857143   0.4285714   0.4285714), wk =   0.1399417
        k(   20) = (   0.4285714   0.4285714   0.4285714), wk =   0.0466472

     Dense  grid:   127171 G-vectors     FFT dimensions: (  64,  64,  64)

     Smooth grid:    69239 G-vectors     FFT dimensions: (  54,  54,  54)

     Estimated max dynamical RAM per process >     551.12 MB

     Initial potential from superposition of free atoms

     starting charge      31.9955, renormalised to      32.0000
     Starting wfcs are   32 randomized atomic wfcs
     Checking if some PAW data can be deallocated... 

     total cpu time spent up to now is       15.3 secs

     per-process dynamical memory:   139.6 Mb

     Self-consistent Calculation

     iteration #  1     ecut=    60.00 Ry     beta= 0.70
     Davidson diagonalization with overlap
     ethr =  1.00E-02,  avg # of iterations =  3.1

     Threshold (ethr) on eigenvalues was too large:
     Diagonalizing with lowered threshold

     Davidson diagonalization with overlap
     ethr =  5.99E-04,  avg # of iterations =  2.1

     total cpu time spent up to now is       30.1 secs

     total energy              =    -373.80511394 Ry
     estimated scf accuracy    <       0.20928572 Ry

     iteration #  2     ecut=    60.00 Ry     beta= 0.70
     Davidson diagonalization with overlap
     ethr =  6.54E-04,  avg # of iterations =  1.1

     total cpu time spent up to now is       98.9 secs

     total energy              =    -373.81264810 Ry
     estimated scf accuracy    <       0.01046167 Ry

     iteration #  3     ecut=    60.00 Ry     beta= 0.70
     Davidson diagonalization with overlap
     ethr =  3.27E-05,  avg # of iterations =  8.2

     total cpu time spent up to now is      109.7 secs

     total energy              =    -373.81451801 Ry
     estimated scf accuracy    <       0.00025258 Ry

     iteration #  4     ecut=    60.00 Ry     beta= 0.70
     Davidson diagonalization with overlap
     c_bands:  1 eigenvalues not converged
     ethr =  7.89E-07,  avg # of iterations =  8.7

     total cpu time spent up to now is      168.2 secs

     total energy              =    -373.81466381 Ry
     estimated scf accuracy    <       0.00000640 Ry

     iteration #  5     ecut=    60.00 Ry     beta= 0.70
     Davidson diagonalization with overlap
     ethr =  2.00E-08,  avg # of iterations =  5.2

     total cpu time spent up to now is      177.9 secs

     total energy              =    -373.81466897 Ry
     estimated scf accuracy    <       0.00000047 Ry

     iteration #  6     ecut=    60.00 Ry     beta= 0.70
     Davidson diagonalization with overlap
     ethr =  1.45E-09,  avg # of iterations =  3.5

     total cpu time spent up to now is      249.9 secs

     total energy              =    -373.81466909 Ry
     estimated scf accuracy    <       0.00000017 Ry

     iteration #  7     ecut=    60.00 Ry     beta= 0.70
     Davidson diagonalization with overlap
     ethr =  5.20E-10,  avg # of iterations =  2.0

     total cpu time spent up to now is      264.7 secs

     End of self-consistent calculation

          k = 0.0000 0.0000 0.0000 (  8709 PWs)   bands (ev):

    -5.8354  -1.7677  -1.7677  -1.7677  -1.7677  -1.7677  -1.7676   3.1869
     3.1869   3.1869   3.1869   3.1869   3.1869   5.9846   5.9846   5.9846
     6.7371   6.7371   6.7371   6.7371

          k = 0.0000 0.0000 0.1429 (  8641 PWs)   bands (ev):

    -5.7477  -2.7962  -1.7407  -1.7406  -1.7406  -1.7406  -0.6347   2.9591
     2.9592   2.9592   2.9592   3.2661   3.2661   5.4372   5.6615   5.6615
     6.5968   7.1146   7.1884   7.1884

          k = 0.0000 0.0000 0.2857 (  8662 PWs)   bands (ev):

    -5.4857  -3.6972  -1.6767  -1.6766  -1.6766  -1.6766   0.5743   2.5410
     2.5410   2.5410   2.5410   3.5020   3.5020   4.3326   5.0334   5.0334
     6.6734   7.7432   7.8709   8.2868

          k = 0.0000 0.0000 0.4286 (  8674 PWs)   bands (ev):

    -5.0524  -4.4534  -1.6216  -1.6215  -1.6215  -1.6215   1.8276   2.2589
     2.2589   2.2589   2.2589   3.0937   3.8880   3.8880   4.4097   4.4097
     6.9410   7.3622   8.6143   9.6411

          k = 0.0000 0.1429 0.1429 (  8652 PWs)   bands (ev):

    -5.6606  -2.7438  -2.7438  -1.8662  -1.5771  -0.6513  -0.6513   2.3967
     2.9883   2.9883   3.1139   3.1139   3.3264   4.7035   5.3364   5.9002
     6.8977   7.0739   7.0739   7.5294

          k = 0.0000 0.1429 0.2857 (  8668 PWs)   bands (ev):

    -5.4003  -3.6298  -2.5972  -1.9965  -1.3605  -0.7216   0.4825   1.9711
     2.4609   2.8659   3.1928   3.2380   3.4597   3.7313   4.7030   5.4525
     7.1648   7.4998   8.1127   8.2036

          k = 0.0000 0.1429 0.4286 (  8674 PWs)   bands (ev):

    -4.9704  -4.3770  -2.3890  -2.1723  -1.1103  -0.8784   1.6125   1.8385
     2.0250   2.6993   2.7907   2.9553   3.5618   3.9973   4.0774   4.6997
     7.4349   7.8466   8.7253   8.9323

          k = 0.0000 0.2857 0.2857 (  8660 PWs)   bands (ev):

    -5.1458  -3.4338  -3.4337  -2.3573  -1.0077   0.2153   0.2153   1.6910
     2.6002   2.6002   2.8571   3.4456   3.4457   3.7286   4.0611   5.5909
     7.3612   8.3045   8.3046   8.9704

          k = 0.0000 0.2857 0.4286 (  8660 PWs)   bands (ev):

    -4.7265  -4.1511  -3.1286  -2.7516  -0.6048  -0.1756   1.1094   1.7375
     1.9801   2.0676   2.9339   3.4352   3.5712   3.7590   4.2308   5.0594
     8.0834   8.5631   8.9385   9.3103

          k = 0.0000 0.4286 0.4286 (  8656 PWs)   bands (ev):

    -4.3277  -3.7873  -3.7873  -3.3080  -0.0664   0.5159   0.5159   1.2324
     1.9250   2.3461   2.3461   2.8194   4.3356   4.4272   4.4272   5.0219
     8.0520   8.7373   8.8120   8.8121

          k = 0.1429 0.1429 0.1429 (  8634 PWs)   bands (ev):

    -5.5741  -2.7041  -2.7041  -2.7040  -0.6790  -0.6790  -0.6789   2.5286
     2.5286   2.5286   3.4033   3.4033   3.4033   4.0614   5.6344   5.6344
     6.9817   6.9817   6.9817   8.2744

          k = 0.1429 0.1429 0.2857 (  8643 PWs)   bands (ev):

    -5.3159  -3.5676  -2.6055  -2.6055  -0.7609  -0.7609   0.3492   2.1513
     2.1513   2.9300   3.1537   3.3406   3.3407   3.6318   5.0786   5.2911
     7.2248   7.5926   7.5926   8.4212

          k = 0.1429 0.1429 0.4286 (  8678 PWs)   bands (ev):

    -4.8898  -4.3031  -2.5142  -2.5141  -0.8503  -0.8503   1.3267   1.9966
     1.9966   2.2471   3.1473   3.1473   3.5956   4.0033   4.4505   4.4994
     7.6010   8.0596   8.8082   8.8082

          k = 0.1429 0.2857 0.2857 (  8643 PWs)   bands (ev):

    -5.0642  -3.3905  -3.3904  -2.6718  -0.8033   0.0074   0.0074   1.9955
     2.3020   2.6462   2.6462   3.6637   3.6637   3.7968   4.6030   5.4600
     7.4622   7.8593   7.8593   8.3722

          k = 0.1429 0.2857 0.4286 (  8673 PWs)   bands (ev):

    -4.6507  -4.0862  -3.1313  -2.8592  -0.6944  -0.3923   0.7409   1.4917
     2.1046   2.3658   3.2985   3.7073   3.8419   3.9595   4.2391   4.9742
     8.1678   8.2521   8.5718   9.0454

          k = 0.1429 0.4286 0.4286 (  8672 PWs)   bands (ev):

    -4.2622  -3.7430  -3.7430  -3.3097  -0.3561   0.1409   0.1409   0.7693
     2.4023   2.8322   2.8322   3.3750   4.3805   4.4600   4.4601   5.0084
     8.1134   8.5833   8.7930   8.7931

          k = 0.2857 0.2857 0.2857 (  8679 PWs)   bands (ev):

    -4.8220  -3.2827  -3.2827  -3.2827  -0.4029  -0.4029  -0.4029   1.4774
     2.7733   2.7733   2.7733   3.9965   3.9965   3.9965   5.1259   5.1259
     7.7472   7.7472   7.7472   7.8147

          k = 0.2857 0.2857 0.4286 (  8655 PWs)   bands (ev):

    -4.4281  -3.9015  -3.1823  -3.1822  -0.7032  -0.7032   0.1021   0.7288
     2.9033   2.9034   3.7712   4.0988   4.0988   4.3118   4.7091   4.7243
     8.0763   8.1160   8.3832   8.3832

          k = 0.2857 0.4286 0.4286 (  8664 PWs)   bands (ev):

    -4.0757  -3.6327  -3.6326  -3.3576  -0.7427  -0.4420  -0.4420   0.0558
     3.3655   3.7098   3.7098   4.2998   4.5045   4.5450   4.5451   4.9548
     7.9742   8.2019   8.3793   8.3793

          k = 0.4286 0.4286 0.4286 (  8636 PWs)   bands (ev):

    -3.8050  -3.5298  -3.5298  -3.5297  -0.8163  -0.8162  -0.8162  -0.5174
     4.3563   4.3563   4.3564   4.6746   4.6747   4.6747   4.8402   4.8402
     7.4889   7.8674   7.8674   7.8674

     the Fermi energy is     6.3094 ev

!    total energy              =    -373.81466912 Ry

     total all-electron energy =     -4640.581589 Ry
     estimated scf accuracy    <          1.8E-09 Ry
     smearing contrib. (-TS)   =       0.00000000 Ry
     internal energy E=F+TS    =    -373.81466912 Ry

     The total energy is F=E-TS. E is the sum of the following terms:
     one-electron contribution =      22.29591966 Ry
     hartree contribution      =       4.47560340 Ry
     xc contribution           =     -49.13288827 Ry
     ewald contribution        =     -66.71988887 Ry
     one-center paw contrib.   =    -284.73341504 Ry

     convergence has been achieved in   7 iterations

     Forces acting on atoms (cartesian axes, Ry/au):

     atom    1 type  1   force =     0.00000273   -0.00000273    0.00000273
     atom    2 type  1   force =     0.00000000    0.00000000    0.00000000
     atom    3 type  1   force =     0.00000273    0.00000273   -0.00000273
     atom    4 type  1   force =     0.00000000    0.00000000    0.00000000
     atom    5 type  1   force =    -0.00000273   -0.00000273   -0.00000273
     atom    6 type  1   force =     0.00000000    0.00000000    0.00000000
     atom    7 type  1   force =    -0.00000273    0.00000273    0.00000273
     atom    8 type  1   force =     0.00000000    0.00000000    0.00000000

     Total force =     0.000009     Total SCF correction =     0.000046
     SCF correction compared to forces is large: reduce conv_thr to get better values


     Computing stress (Cartesian axis) and pressure

          total   stress  (Ry/bohr**3)                   (kbar)     P=        0.19
   0.00000126   0.00000000   0.00000000            0.19        0.00        0.00
   0.00000000   0.00000126   0.00000000            0.00        0.19        0.00
   0.00000000   0.00000000   0.00000126            0.00        0.00        0.19


     Writing all to output data dir ./outputs/silicon.save/

     init_run     :     17.52s CPU     15.09s WALL (       1 calls)
     electrons    :    358.79s CPU    249.58s WALL (       1 calls)
     forces       :      3.02s CPU      2.92s WALL (       1 calls)
     stress       :     36.89s CPU     55.60s WALL (       1 calls)

     Called by init_run:
     wfcinit      :     12.72s CPU     10.26s WALL (       1 calls)
     potinit      :      2.13s CPU      1.73s WALL (       1 calls)
     hinit0       :      1.23s CPU      1.06s WALL (       1 calls)

     Called by electrons:
     c_bands      :    284.57s CPU    255.99s WALL (       8 calls)
     sum_band     :     61.67s CPU     16.03s WALL (       8 calls)
     v_of_rho     :      1.05s CPU      0.65s WALL (       8 calls)
     newd         :      5.32s CPU    -10.91s WALL (       8 calls)
     PAW_pot      :      8.59s CPU     -9.89s WALL (       8 calls)
     mix_rho      :      0.07s CPU      0.12s WALL (       8 calls)

     Called by c_bands:
     init_us_2    :      2.16s CPU      2.14s WALL (     380 calls)
     init_us_2:cp :      2.16s CPU      2.14s WALL (     380 calls)
     cegterg      :    275.29s CPU    264.23s WALL (     160 calls)

     Called by *egterg:
     cdiaghg      :      0.51s CPU      0.47s WALL (     816 calls)
     h_psi        :    244.32s CPU    251.64s WALL (     856 calls)
     s_psi        :     12.97s CPU      9.63s WALL (     856 calls)
     g_psi        :      3.83s CPU      3.82s WALL (     676 calls)

     Called by h_psi:
     h_psi:calbec :     19.32s CPU    -21.09s WALL (     856 calls)
     vloc_psi     :    212.10s CPU    233.53s WALL (     856 calls)
     add_vuspsi   :      9.79s CPU     36.62s WALL (     856 calls)

     General routines
     calbec       :     25.27s CPU    -16.80s WALL (    1116 calls)
     fft          :      1.29s CPU      1.10s WALL (     128 calls)
     ffts         :      0.91s CPU      0.95s WALL (      16 calls)
     fftw         :    232.60s CPU    234.08s WALL (   23082 calls)
     interpolate  :      0.92s CPU      0.97s WALL (       8 calls)

     Parallel routines

     PWSCF        :   6m56.57s CPU   5m23.82s WALL


   This run was terminated on:   8:31:35  12Dec2024            

=------------------------------------------------------------------------------=
   JOB DONE.
=------------------------------------------------------------------------------=
