 CRYSTAL
 PRIMVEC
    5.468730000    0.000000000    0.000000000
    0.000000000    5.468730000    0.000000000
    0.000000000    0.000000000    5.468730000
 PRIMCOORD
           8           1
Si        1.367182500    4.101547500    1.367182500
Si        0.000000000    0.000000000    2.734365000
Si        1.367182500    1.367182500    4.101547500
Si        0.000000000    2.734365000    0.000000000
Si        4.101547500    4.101547500    4.101547500
Si        2.734365000    0.000000000    0.000000000
Si        4.101547500    1.367182500    1.367182500
Si        2.734365000    2.734365000    2.734365000
BEGIN_BLOCK_DATAGRID_3D
3D_PWSCF
DATAGRID_3D_UNKNOWN
          65          65          65
  0.000000  0.000000  0.000000
  5.468730  0.000000  0.000000
  0.000000  5.468730  0.000000
  0.000000  0.000000  5.468730
 -0.282120E-02 -0.282637E-02 -0.283940E-02 -0.285548E-02 -0.286818E-02 -0.286801E-02
 -0.284656E-02 -0.279176E-02 -0.269132E-02 -0.253469E-02 -0.231672E-02 -0.203324E-02
 -0.168439E-02 -0.127554E-02 -0.831319E-03 -0.392270E-03 -0.133134E-04  0.253260E-03
  0.345564E-03  0.168510E-03 -0.406118E-03 -0.138760E-02 -0.265723E-02 -0.427234E-02
 -0.619422E-02 -0.791058E-02 -0.832585E-02 -0.614043E-02 -0.606706E-03  0.772456E-02
  0.168484E-01  0.239636E-01  0.266390E-01  0.239636E-01  0.168484E-01  0.772456E-02
 -0.606706E-03 -0.614043E-02 -0.832585E-02 -0.791058E-02 -0.619422E-02 -0.427234E-02
 -0.265723E-02 -0.138760E-02 -0.406118E-03  0.168510E-03  0.345564E-03  0.253260E-03
 -0.133134E-04 -0.392270E-03 -0.831319E-03 -0.127554E-02 -0.168439E-02 -0.203324E-02
 -0.231672E-02 -0.253469E-02 -0.269132E-02 -0.279176E-02 -0.284656E-02 -0.286801E-02
 -0.286818E-02 -0.285548E-02 -0.283940E-02 -0.282637E-02 -0.282120E-02 -0.282637E-02
 -0.283135E-02 -0.284445E-02 -0.286063E-02 -0.287371E-02 -0.287480E-02 -0.285424E-02
 -0.279961E-02 -0.269934E-02 -0.254251E-02 -0.232336E-02 -0.203736E-02 -0.168375E-02
 -0.126773E-02 -0.813261E-03 -0.360872E-03  0.353616E-04  0.323293E-03  0.440877E-03
  0.295323E-03 -0.241920E-03 -0.118956E-02 -0.242682E-02 -0.400416E-02 -0.590033E-02
 -0.764426E-02 -0.820260E-02 -0.633075E-02 -0.130431E-02  0.637979E-02  0.148421E-01
  0.214640E-01  0.239635E-01  0.214640E-01  0.148421E-01  0.637979E-02 -0.130431E-02
 -0.633075E-02 -0.820260E-02 -0.764426E-02 -0.590033E-02 -0.400416E-02 -0.242682E-02
 -0.118956E-02 -0.241920E-03  0.295323E-03  0.440877E-03  0.323293E-03  0.353616E-04
 -0.360872E-03 -0.813261E-03 -0.126773E-02 -0.168375E-02 -0.203736E-02 -0.232336E-02
 -0.254251E-02 -0.269934E-02 -0.279961E-02 -0.285424E-02 -0.287480E-02 -0.287371E-02
 -0.286063E-02 -0.284445E-02 -0.283135E-02 -0.282637E-02 -0.283940E-02 -0.284445E-02
 -0.285815E-02 -0.287501E-02 -0.288927E-02 -0.289263E-02 -0.287432E-02 -0.282181E-02
 -0.272313E-02 -0.256569E-02 -0.234273E-02 -0.204927E-02 -0.168230E-02 -0.124590E-02
 -0.762051E-03 -0.270729E-03  0.175686E-03  0.525108E-03  0.715931E-03  0.659802E-03
  0.229462E-03 -0.619362E-03 -0.176639E-02 -0.323761E-02 -0.505491E-02 -0.685779E-02
 -0.778539E-02 -0.674668E-02 -0.307806E-02  0.286814E-02  0.955930E-02  0.148420E-01
  0.168484E-01  0.148420E-01  0.955930E-02  0.286814E-02 -0.307806E-02 -0.674668E-02
 -0.778539E-02 -0.685779E-02 -0.505491E-02 -0.323761E-02 -0.176639E-02 -0.619362E-03
  0.229462E-03  0.659802E-03  0.715931E-03  0.525108E-03  0.175686E-03 -0.270729E-03
 -0.762051E-03 -0.124590E-02 -0.168230E-02 -0.204927E-02 -0.234273E-02 -0.256569E-02
 -0.272313E-02 -0.282181E-02 -0.287432E-02 -0.289263E-02 -0.288927E-02 -0.287501E-02
 -0.285815E-02 -0.284445E-02 -0.283940E-02 -0.285548E-02 -0.286063E-02 -0.287501E-02
 -0.289414E-02 -0.291135E-02 -0.291771E-02 -0.290353E-02 -0.285552E-02 -0.275985E-02
 -0.260217E-02 -0.237384E-02 -0.206868E-02 -0.168166E-02 -0.121511E-02 -0.687020E-03
 -0.135244E-03  0.388486E-03  0.830936E-03  0.113319E-02  0.121145E-02  0.945379E-03
  0.254916E-03 -0.759058E-03 -0.207536E-02 -0.375813E-02 -0.559541E-02 -0.696579E-02
 -0.700166E-02 -0.511651E-02 -0.147750E-02  0.286813E-02  0.637977E-02  0.772453E-02
  0.637977E-02  0.286813E-02 -0.147750E-02 -0.511651E-02 -0.700166E-02 -0.696579E-02
 -0.559541E-02 -0.375813E-02 -0.207536E-02 -0.759058E-03  0.254916E-03  0.945379E-03
  0.121145E-02  0.113319E-02  0.830936E-03  0.388486E-03 -0.135244E-03 -0.687020E-03
 -0.121511E-02 -0.168166E-02 -0.206868E-02 -0.237384E-02 -0.260217E-02 -0.275985E-02
 -0.285552E-02 -0.290353E-02 -0.291771E-02 -0.291135E-02 -0.289414E-02 -0.287501E-02
 -0.286063E-02 -0.285548E-02 -0.286818E-02 -0.287371E-02 -0.288927E-02 -0.291135E-02
 -0.293231E-02 -0.294394E-02 -0.293677E-02 -0.289475E-02 -0.280302E-02 -0.264641E-02
 -0.241371E-02 -0.209597E-02 -0.168566E-02 -0.118363E-02 -0.603014E-03  0.221963E-04
  0.641022E-03  0.119779E-02  0.163667E-02  0.187759E-02  0.181207E-02  0.132890E-02
  0.478265E-03 -0.663792E-03 -0.216576E-02 -0.396096E-02 -0.567273E-02 -0.669009E-02
 -0.650922E-02 -0.511651E-02 -0.307806E-02 -0.130432E-02 -0.606721E-03 -0.130432E-02
 -0.307806E-02 -0.511651E-02 -0.650922E-02 -0.669009E-02 -0.567273E-02 -0.396096E-02
 -0.216576E-02 -0.663792E-03  0.478265E-03  0.132890E-02  0.181207E-02  0.187759E-02
  0.163667E-02  0.119779E-02  0.641022E-03  0.221963E-04 -0.603014E-03 -0.118363E-02
 -0.168566E-02 -0.209597E-02 -0.241371E-02 -0.264641E-02 -0.280302E-02 -0.289475E-02
 -0.293677E-02 -0.294394E-02 -0.293231E-02 -0.291135E-02 -0.288927E-02 -0.287371E-02
 -0.286818E-02 -0.286801E-02 -0.287480E-02 -0.289263E-02 -0.291771E-02 -0.294394E-02
 -0.296342E-02 -0.296434E-02 -0.293016E-02 -0.284536E-02 -0.269246E-02 -0.245767E-02
 -0.212919E-02 -0.169654E-02 -0.115878E-02 -0.524883E-03  0.175964E-03  0.895781E-03
  0.157562E-02  0.215980E-02  0.257307E-02  0.271804E-02  0.247257E-02  0.181291E-02
  0.836853E-03 -0.467646E-03 -0.212955E-02 -0.397394E-02 -0.562701E-02 -0.669008E-02
 -0.700164E-02 -0.674666E-02 -0.633073E-02 -0.614041E-02 -0.633073E-02 -0.674666E-02
 -0.700164E-02 -0.669008E-02 -0.562701E-02 -0.397394E-02 -0.212955E-02 -0.467646E-03
  0.836853E-03  0.181291E-02  0.247257E-02  0.271804E-02  0.257307E-02  0.215980E-02
  0.157562E-02  0.895781E-03  0.175964E-03 -0.524883E-03 -0.115878E-02 -0.169654E-02
 -0.212919E-02 -0.245767E-02 -0.269246E-02 -0.284536E-02 -0.293016E-02 -0.296434E-02
 -0.296342E-02 -0.294394E-02 -0.291771E-02 -0.289263E-02 -0.287480E-02 -0.286801E-02
 -0.284656E-02 -0.285424E-02 -0.287432E-02 -0.290353E-02 -0.293677E-02 -0.296434E-02
 -0.297337E-02 -0.294987E-02 -0.287579E-02 -0.273063E-02 -0.249783E-02 -0.216316E-02
 -0.171434E-02 -0.114757E-02 -0.468000E-03  0.300073E-03  0.111307E-02  0.191061E-02
  0.263255E-02  0.320970E-02  0.355218E-02  0.354781E-02  0.310925E-02  0.228960E-02
  0.115685E-02 -0.318214E-03 -0.209524E-02 -0.397393E-02 -0.567272E-02 -0.696577E-02
 -0.778536E-02 -0.820256E-02 -0.832580E-02 -0.820256E-02 -0.778536E-02 -0.696577E-02
 -0.567272E-02 -0.397393E-02 -0.209524E-02 -0.318214E-03  0.115685E-02  0.228960E-02
  0.310925E-02  0.354781E-02  0.355218E-02  0.320970E-02  0.263255E-02  0.191061E-02
  0.111307E-02  0.300073E-03 -0.468000E-03 -0.114757E-02 -0.171434E-02 -0.216316E-02
 -0.249783E-02 -0.273063E-02 -0.287579E-02 -0.294987E-02 -0.297337E-02 -0.296434E-02
 -0.293677E-02 -0.290353E-02 -0.287432E-02 -0.285424E-02 -0.284656E-02 -0.279176E-02
 -0.279961E-02 -0.282181E-02 -0.285552E-02 -0.289475E-02 -0.293016E-02 -0.294987E-02
 -0.293955E-02 -0.287833E-02 -0.274531E-02 -0.252135E-02 -0.219002E-02 -0.173718E-02
 -0.115528E-02 -0.446067E-03  0.371923E-03  0.125829E-02  0.215446E-02  0.299414E-02
  0.371090E-02  0.422112E-02  0.442899E-02  0.422791E-02  0.358644E-02  0.258802E-02
  0.128397E-02 -0.318219E-03 -0.212955E-02 -0.396095E-02 -0.559538E-02 -0.685775E-02
 -0.764422E-02 -0.791054E-02 -0.764422E-02 -0.685775E-02 -0.559538E-02 -0.396095E-02
 -0.212955E-02 -0.318219E-03  0.128397E-02  0.258802E-02  0.358644E-02  0.422791E-02
  0.442899E-02  0.422112E-02  0.371090E-02  0.299414E-02  0.215446E-02  0.125829E-02
  0.371923E-03 -0.446067E-03 -0.115528E-02 -0.173718E-02 -0.219002E-02 -0.252135E-02
 -0.274531E-02 -0.287833E-02 -0.293955E-02 -0.294987E-02 -0.293016E-02 -0.289475E-02
 -0.285552E-02 -0.282181E-02 -0.279961E-02 -0.279176E-02 -0.269132E-02 -0.269934E-02
 -0.272313E-02 -0.275985E-02 -0.280302E-02 -0.284536E-02 -0.287579E-02 -0.287833E-02
 -0.283288E-02 -0.271869E-02 -0.251315E-02 -0.219783E-02 -0.175631E-02 -0.117779E-02
 -0.461864E-03  0.379532E-03  0.130959E-02  0.227260E-02  0.319917E-02  0.402044E-02
  0.465993E-02  0.503094E-02  0.504226E-02  0.461486E-02  0.376487E-02  0.258801E-02
  0.115684E-02 -0.467663E-03 -0.216577E-02 -0.375813E-02 -0.505490E-02 -0.590032E-02
 -0.619420E-02 -0.590032E-02 -0.505490E-02 -0.375813E-02 -0.216577E-02 -0.467663E-03
  0.115684E-02  0.258801E-02  0.376487E-02  0.461486E-02  0.504226E-02  0.503094E-02
  0.465993E-02  0.402044E-02  0.319917E-02  0.227260E-02  0.130959E-02  0.379532E-03
 -0.461864E-03 -0.117779E-02 -0.175631E-02 -0.219783E-02 -0.251315E-02 -0.271869E-02
 -0.283288E-02 -0.287833E-02 -0.287579E-02 -0.284536E-02 -0.280302E-02 -0.275985E-02
 -0.272313E-02 -0.269934E-02 -0.269132E-02 -0.253469E-02 -0.254251E-02 -0.256569E-02
 -0.260217E-02 -0.264641E-02 -0.269246E-02 -0.273063E-02 -0.274531E-02 -0.271869E-02
 -0.262962E-02 -0.245287E-02 -0.216794E-02 -0.175646E-02 -0.120442E-02 -0.508903E-03
  0.322094E-03  0.125827E-02  0.224799E-02  0.322271E-02  0.410822E-02  0.483210E-02
  0.531610E-02  0.548326E-02  0.526249E-02  0.461484E-02  0.358640E-02  0.228956E-02
  0.836811E-03 -0.663831E-03 -0.207539E-02 -0.323763E-02 -0.400418E-02 -0.427236E-02
 -0.400418E-02 -0.323763E-02 -0.207539E-02 -0.663831E-03  0.836811E-03  0.228956E-02
  0.358640E-02  0.461484E-02  0.526249E-02  0.548326E-02  0.531610E-02  0.483210E-02
  0.410822E-02  0.322271E-02  0.224799E-02  0.125827E-02  0.322094E-03 -0.508903E-03
 -0.120442E-02 -0.175646E-02 -0.216794E-02 -0.245287E-02 -0.262962E-02 -0.271869E-02
 -0.274531E-02 -0.273063E-02 -0.269246E-02 -0.264641E-02 -0.260217E-02 -0.256569E-02
 -0.254251E-02 -0.253469E-02 -0.231672E-02 -0.232336E-02 -0.234273E-02 -0.237384E-02
 -0.241371E-02 -0.245767E-02 -0.249783E-02 -0.252135E-02 -0.251315E-02 -0.245287E-02
 -0.231473E-02 -0.207539E-02 -0.171403E-02 -0.121475E-02 -0.570713E-03  0.212879E-03
  0.111304E-02  0.208384E-02  0.306070E-02  0.396873E-02  0.473226E-02  0.528257E-02
  0.555144E-02  0.548324E-02  0.504222E-02  0.422786E-02  0.310919E-02  0.181284E-02
  0.478195E-03 -0.759126E-03 -0.176645E-02 -0.242688E-02 -0.265728E-02 -0.242688E-02
 -0.176645E-02 -0.759126E-03  0.478195E-03  0.181284E-02  0.310919E-02  0.422786E-02
  0.504222E-02  0.548324E-02  0.555144E-02  0.528257E-02  0.473226E-02  0.396873E-02
  0.306070E-02  0.208384E-02  0.111304E-02  0.212879E-03 -0.570713E-03 -0.121475E-02
 -0.171403E-02 -0.207539E-02 -0.231473E-02 -0.245287E-02 -0.251315E-02 -0.252135E-02
 -0.249783E-02 -0.245767E-02 -0.241371E-02 -0.237384E-02 -0.234273E-02 -0.232336E-02
 -0.231672E-02 -0.203324E-02 -0.203736E-02 -0.204927E-02 -0.206868E-02 -0.209597E-02
 -0.212919E-02 -0.216316E-02 -0.219002E-02 -0.219783E-02 -0.216794E-02 -0.207539E-02
 -0.189560E-02 -0.160443E-02 -0.118353E-02 -0.623060E-03  0.756329E-04  0.895735E-03
  0.180030E-02  0.273073E-02  0.361633E-02  0.438009E-02  0.495493E-02  0.528254E-02
  0.531606E-02  0.503088E-02  0.442891E-02  0.354772E-02  0.247248E-02  0.132880E-02
  0.254814E-03 -0.619463E-03 -0.118966E-02 -0.138770E-02 -0.118966E-02 -0.619463E-03
  0.254814E-03  0.132880E-02  0.247248E-02  0.354772E-02  0.442891E-02  0.503088E-02
  0.531606E-02  0.528254E-02  0.495493E-02  0.438009E-02  0.361633E-02  0.273073E-02
  0.180030E-02  0.895735E-03  0.756329E-04 -0.623060E-03 -0.118353E-02 -0.160443E-02
 -0.189560E-02 -0.207539E-02 -0.216794E-02 -0.219783E-02 -0.219002E-02 -0.216316E-02
 -0.212919E-02 -0.209597E-02 -0.206868E-02 -0.204927E-02 -0.203736E-02 -0.203324E-02
 -0.168439E-02 -0.168375E-02 -0.168230E-02 -0.168166E-02 -0.168566E-02 -0.169654E-02
 -0.171434E-02 -0.173718E-02 -0.175631E-02 -0.175646E-02 -0.171403E-02 -0.160443E-02
 -0.140200E-02 -0.108410E-02 -0.637541E-03 -0.585493E-04  0.640961E-03  0.143369E-02
  0.227134E-02  0.308844E-02  0.381350E-02  0.438007E-02  0.473222E-02  0.483204E-02
  0.465985E-02  0.422102E-02  0.355206E-02  0.271792E-02  0.181194E-02  0.945250E-03
  0.229331E-03 -0.242052E-03 -0.406250E-03 -0.242052E-03  0.229331E-03  0.945250E-03
  0.181194E-02  0.271792E-02  0.355206E-02  0.422102E-02  0.465985E-02  0.483204E-02
  0.473222E-02  0.438007E-02  0.381350E-02  0.308844E-02  0.227134E-02  0.143369E-02
  0.640961E-03 -0.585493E-04 -0.637541E-03 -0.108410E-02 -0.140200E-02 -0.160443E-02
 -0.171403E-02 -0.175646E-02 -0.175631E-02 -0.173718E-02 -0.171434E-02 -0.169654E-02
 -0.168566E-02 -0.168166E-02 -0.168230E-02 -0.168375E-02 -0.168439E-02 -0.127554E-02
 -0.126773E-02 -0.124590E-02 -0.121511E-02 -0.118363E-02 -0.115878E-02 -0.114757E-02
 -0.115528E-02 -0.117779E-02 -0.120442E-02 -0.121475E-02 -0.118353E-02 -0.108410E-02
 -0.890190E-03 -0.584109E-03 -0.156355E-03  0.388411E-03  0.102986E-02  0.173162E-02
  0.243962E-02  0.308842E-02  0.361629E-02  0.396867E-02  0.410813E-02  0.402034E-02
  0.371079E-02  0.320958E-02  0.257293E-02  0.187744E-02  0.121130E-02  0.659649E-03
  0.295169E-03  0.168355E-03  0.295169E-03  0.659649E-03  0.121130E-02  0.187744E-02
  0.257293E-02  0.320958E-02  0.371079E-02  0.402034E-02  0.410813E-02  0.396867E-02
  0.361629E-02  0.308842E-02  0.243962E-02  0.173162E-02  0.102986E-02  0.388411E-03
 -0.156355E-03 -0.584109E-03 -0.890190E-03 -0.108410E-02 -0.118353E-02 -0.121475E-02
 -0.120442E-02 -0.117779E-02 -0.115528E-02 -0.114757E-02 -0.115878E-02 -0.118363E-02
 -0.121511E-02 -0.124590E-02 -0.126773E-02 -0.127554E-02 -0.831319E-03 -0.813261E-03
 -0.762051E-03 -0.687020E-03 -0.603014E-03 -0.524883E-03 -0.468000E-03 -0.446067E-03
 -0.461864E-03 -0.508903E-03 -0.570713E-03 -0.623060E-03 -0.637541E-03 -0.584109E-03
 -0.438433E-03 -0.186308E-03  0.175600E-03  0.636253E-03  0.116825E-02  0.173161E-02
  0.227130E-02  0.273067E-02  0.306063E-02  0.322261E-02  0.319905E-02  0.299401E-02
  0.263241E-02  0.215965E-02  0.163651E-02  0.113303E-02  0.715765E-03  0.440709E-03
  0.345395E-03  0.440709E-03  0.715765E-03  0.113303E-02  0.163651E-02  0.215965E-02
  0.263241E-02  0.299401E-02  0.319905E-02  0.322261E-02  0.306063E-02  0.273067E-02
  0.227130E-02  0.173161E-02  0.116825E-02  0.636253E-03  0.175600E-03 -0.186308E-03
 -0.438433E-03 -0.584109E-03 -0.637541E-03 -0.623060E-03 -0.570713E-03 -0.508903E-03
 -0.461864E-03 -0.446067E-03 -0.468000E-03 -0.524883E-03 -0.603014E-03 -0.687020E-03
 -0.762051E-03 -0.813261E-03 -0.831319E-03 -0.392270E-03 -0.360872E-03 -0.270729E-03
 -0.135244E-03  0.221963E-04  0.175964E-03  0.300073E-03  0.371923E-03  0.379532E-03
  0.322094E-03  0.212879E-03  0.756329E-04 -0.585493E-04 -0.156355E-03 -0.186308E-03
 -0.125619E-03  0.352641E-04  0.294756E-03  0.636234E-03  0.102982E-02  0.143363E-02
  0.180023E-02  0.208375E-02  0.224788E-02  0.227247E-02  0.215433E-02  0.191047E-02
  0.157546E-02  0.119762E-02  0.830766E-03  0.524935E-03  0.323118E-03  0.253084E-03
  0.323118E-03  0.524935E-03  0.830766E-03  0.119762E-02  0.157546E-02  0.191047E-02
  0.215433E-02  0.227247E-02  0.224788E-02  0.208375E-02  0.180023E-02  0.143363E-02
  0.102982E-02  0.636234E-03  0.294756E-03  0.352641E-04 -0.125619E-03 -0.186308E-03
 -0.156355E-03 -0.585493E-04  0.756329E-04  0.212879E-03  0.322094E-03  0.379532E-03
  0.371923E-03  0.300073E-03  0.175964E-03  0.221963E-04 -0.135244E-03 -0.270729E-03
 -0.360872E-03 -0.392270E-03 -0.133134E-04  0.353616E-04  0.175686E-03  0.388486E-03
  0.641022E-03  0.895781E-03  0.111307E-02  0.125829E-02  0.130959E-02  0.125827E-02
  0.111304E-02  0.895735E-03  0.640961E-03  0.388411E-03  0.175600E-03  0.352641E-04
 -0.134207E-04  0.352457E-04  0.175563E-03  0.388357E-03  0.640889E-03  0.895646E-03
  0.111293E-02  0.125815E-02  0.130946E-02  0.125814E-02  0.111292E-02  0.895620E-03
  0.640855E-03  0.388314E-03  0.175512E-03  0.351856E-04 -0.134899E-04  0.351856E-04
  0.175512E-03  0.388314E-03  0.640855E-03  0.895620E-03  0.111292E-02  0.125814E-02
  0.130946E-02  0.125815E-02  0.111293E-02  0.895646E-03  0.640889E-03  0.388357E-03
  0.175563E-03  0.352457E-04 -0.134207E-04  0.352641E-04  0.175600E-03  0.388411E-03
  0.640961E-03  0.895735E-03  0.111304E-02  0.125827E-02  0.130959E-02  0.125829E-02
  0.111307E-02  0.895781E-03  0.641022E-03  0.388486E-03  0.175686E-03  0.353616E-04
 -0.133134E-04  0.253260E-03  0.323293E-03  0.525108E-03  0.830936E-03  0.119779E-02
  0.157562E-02  0.191061E-02  0.215446E-02  0.227260E-02  0.224799E-02  0.208384E-02
  0.180030E-02  0.143369E-02  0.102986E-02  0.636253E-03  0.294756E-03  0.352457E-04
 -0.125655E-03 -0.186361E-03 -0.156425E-03 -0.586350E-04  0.755325E-04  0.212765E-03
  0.321968E-03  0.379395E-03  0.371776E-03  0.299918E-03  0.175803E-03  0.220308E-04
 -0.135413E-03 -0.270900E-03 -0.361044E-03 -0.392443E-03 -0.361044E-03 -0.270900E-03
 -0.135413E-03  0.220308E-04  0.175803E-03  0.299918E-03  0.371776E-03  0.379395E-03
  0.321968E-03  0.212765E-03  0.755325E-04 -0.586350E-04 -0.156425E-03 -0.186361E-03
 -0.125655E-03  0.352457E-04  0.294756E-03  0.636253E-03  0.102986E-02  0.143369E-02
  0.180030E-02  0.208384E-02  0.224799E-02  0.227260E-02  0.215446E-02  0.191061E-02
  0.157562E-02  0.119779E-02  0.830936E-03  0.525108E-03  0.323293E-03  0.253260E-03
  0.345564E-03  0.440877E-03  0.715931E-03  0.113319E-02  0.163667E-02  0.215980E-02
  0.263255E-02  0.299414E-02  0.319917E-02  0.322271E-02  0.306070E-02  0.273073E-02
  0.227134E-02  0.173162E-02  0.116825E-02  0.636234E-03  0.175563E-03 -0.186361E-03
 -0.438502E-03 -0.584193E-03 -0.637639E-03 -0.623170E-03 -0.570834E-03 -0.509034E-03
 -0.462004E-03 -0.446214E-03 -0.468153E-03 -0.525041E-03 -0.603175E-03 -0.687184E-03
 -0.762216E-03 -0.813427E-03 -0.831485E-03 -0.813427E-03 -0.762216E-03 -0.687184E-03
 -0.603175E-03 -0.525041E-03 -0.468153E-03 -0.446214E-03 -0.462004E-03 -0.509034E-03
 -0.570834E-03 -0.623170E-03 -0.637639E-03 -0.584193E-03 -0.438502E-03 -0.186361E-03
  0.175563E-03  0.636234E-03  0.116825E-02  0.173162E-02  0.227134E-02  0.273073E-02
  0.306070E-02  0.322271E-02  0.319917E-02  0.299414E-02  0.263255E-02  0.215980E-02
  0.163667E-02  0.113319E-02  0.715931E-03  0.440877E-03  0.345564E-03  0.168510E-03
  0.295323E-03  0.659802E-03  0.121145E-02  0.187759E-02  0.257307E-02  0.320970E-02
  0.371090E-02  0.402044E-02  0.410822E-02  0.396873E-02  0.361633E-02  0.308844E-02
  0.243962E-02  0.173161E-02  0.102982E-02  0.388357E-03 -0.156425E-03 -0.584193E-03
 -0.890287E-03 -0.108421E-02 -0.118364E-02 -0.121487E-02 -0.120456E-02 -0.117793E-02
 -0.115543E-02 -0.114772E-02 -0.115893E-02 -0.118378E-02 -0.121526E-02 -0.124606E-02
 -0.126789E-02 -0.127570E-02 -0.126789E-02 -0.124606E-02 -0.121526E-02 -0.118378E-02
 -0.115893E-02 -0.114772E-02 -0.115543E-02 -0.117793E-02 -0.120456E-02 -0.121487E-02
 -0.118364E-02 -0.108421E-02 -0.890287E-03 -0.584193E-03 -0.156425E-03  0.388357E-03
  0.102982E-02  0.173161E-02  0.243962E-02  0.308844E-02  0.361633E-02  0.396873E-02
  0.410822E-02  0.402044E-02  0.371090E-02  0.320970E-02  0.257307E-02  0.187759E-02
  0.121145E-02  0.659802E-03  0.295323E-03  0.168510E-03 -0.406118E-03 -0.241920E-03
  0.229462E-03  0.945379E-03  0.181207E-02  0.271804E-02  0.355218E-02  0.422112E-02
  0.465993E-02  0.483210E-02  0.473226E-02  0.438009E-02  0.381350E-02  0.308842E-02
  0.227130E-02  0.143363E-02  0.640889E-03 -0.586350E-04 -0.637639E-03 -0.108421E-02
 -0.140211E-02 -0.160455E-02 -0.171416E-02 -0.175659E-02 -0.175645E-02 -0.173732E-02
 -0.171448E-02 -0.169668E-02 -0.168581E-02 -0.168181E-02 -0.168245E-02 -0.168390E-02
 -0.168453E-02 -0.168390E-02 -0.168245E-02 -0.168181E-02 -0.168581E-02 -0.169668E-02
 -0.171448E-02 -0.173732E-02 -0.175645E-02 -0.175659E-02 -0.171416E-02 -0.160455E-02
 -0.140211E-02 -0.108421E-02 -0.637639E-03 -0.586350E-04  0.640889E-03  0.143363E-02
  0.227130E-02  0.308842E-02  0.381350E-02  0.438009E-02  0.473226E-02  0.483210E-02
  0.465993E-02  0.422112E-02  0.355218E-02  0.271804E-02  0.181207E-02  0.945379E-03
  0.229462E-03 -0.241920E-03 -0.406118E-03 -0.138760E-02 -0.118956E-02 -0.619362E-03
  0.254916E-03  0.132890E-02  0.247257E-02  0.354781E-02  0.442899E-02  0.503094E-02
  0.531610E-02  0.528257E-02  0.495493E-02  0.438007E-02  0.361629E-02  0.273067E-02
  0.180023E-02  0.895646E-03  0.755325E-04 -0.623170E-03 -0.118364E-02 -0.160455E-02
 -0.189573E-02 -0.207553E-02 -0.216808E-02 -0.219797E-02 -0.219016E-02 -0.216330E-02
 -0.212933E-02 -0.209610E-02 -0.206882E-02 -0.204940E-02 -0.203750E-02 -0.203337E-02
 -0.203750E-02 -0.204940E-02 -0.206882E-02 -0.209610E-02 -0.212933E-02 -0.216330E-02
 -0.219016E-02 -0.219797E-02 -0.216808E-02 -0.207553E-02 -0.189573E-02 -0.160455E-02
 -0.118364E-02 -0.623170E-03  0.755325E-04  0.895646E-03  0.180023E-02  0.273067E-02
  0.361629E-02  0.438007E-02  0.495493E-02  0.528257E-02  0.531610E-02  0.503094E-02
  0.442899E-02  0.354781E-02  0.247257E-02  0.132890E-02  0.254916E-03 -0.619362E-03
 -0.118956E-02 -0.138760E-02 -0.265723E-02 -0.242682E-02 -0.176639E-02 -0.759058E-03
  0.478265E-03  0.181291E-02  0.310925E-02  0.422791E-02  0.504226E-02  0.548326E-02
  0.555144E-02  0.528254E-02  0.473222E-02  0.396867E-02  0.306063E-02  0.208375E-02
  0.111293E-02  0.212765E-03 -0.570834E-03 -0.121487E-02 -0.171416E-02 -0.207553E-02
 -0.231486E-02 -0.245300E-02 -0.251328E-02 -0.252148E-02 -0.249796E-02 -0.245781E-02
 -0.241384E-02 -0.237397E-02 -0.234286E-02 -0.232349E-02 -0.231685E-02 -0.232349E-02
 -0.234286E-02 -0.237397E-02 -0.241384E-02 -0.245781E-02 -0.249796E-02 -0.252148E-02
 -0.251328E-02 -0.245300E-02 -0.231486E-02 -0.207553E-02 -0.171416E-02 -0.121487E-02
 -0.570834E-03  0.212765E-03  0.111293E-02  0.208375E-02  0.306063E-02  0.396867E-02
  0.473222E-02  0.528254E-02  0.555144E-02  0.548326E-02  0.504226E-02  0.422791E-02
  0.310925E-02  0.181291E-02  0.478265E-03 -0.759058E-03 -0.176639E-02 -0.242682E-02
 -0.265723E-02 -0.427234E-02 -0.400416E-02 -0.323761E-02 -0.207536E-02 -0.663792E-03
  0.836853E-03  0.228960E-02  0.358644E-02  0.461486E-02  0.526249E-02  0.548324E-02
  0.531606E-02  0.483204E-02  0.410813E-02  0.322261E-02  0.224788E-02  0.125815E-02
  0.321968E-03 -0.509034E-03 -0.120456E-02 -0.175659E-02 -0.216808E-02 -0.245300E-02
 -0.262975E-02 -0.271882E-02 -0.274544E-02 -0.273076E-02 -0.269258E-02 -0.264653E-02
 -0.260229E-02 -0.256580E-02 -0.254263E-02 -0.253481E-02 -0.254263E-02 -0.256580E-02
 -0.260229E-02 -0.264653E-02 -0.269258E-02 -0.273076E-02 -0.274544E-02 -0.271882E-02
 -0.262975E-02 -0.245300E-02 -0.216808E-02 -0.175659E-02 -0.120456E-02 -0.509034E-03
  0.321968E-03  0.125815E-02  0.224788E-02  0.322261E-02  0.410813E-02  0.483204E-02
  0.531606E-02  0.548324E-02  0.526249E-02  0.461486E-02  0.358644E-02  0.228960E-02
  0.836853E-03 -0.663792E-03 -0.207536E-02 -0.323761E-02 -0.400416E-02 -0.427234E-02
 -0.619422E-02 -0.590033E-02 -0.505491E-02 -0.375813E-02 -0.216576E-02 -0.467646E-03
  0.115685E-02  0.258802E-02  0.376487E-02  0.461484E-02  0.504222E-02  0.503088E-02
  0.465985E-02  0.402034E-02  0.319905E-02  0.227247E-02  0.130946E-02  0.379395E-03
 -0.462004E-03 -0.117793E-02 -0.175645E-02 -0.219797E-02 -0.251328E-02 -0.271882E-02
 -0.283301E-02 -0.287845E-02 -0.287591E-02 -0.284547E-02 -0.280313E-02 -0.275996E-02
 -0.272324E-02 -0.269945E-02 -0.269143E-02 -0.269945E-02 -0.272324E-02 -0.275996E-02
 -0.280313E-02 -0.284547E-02 -0.287591E-02 -0.287845E-02 -0.283301E-02 -0.271882E-02
 -0.251328E-02 -0.219797E-02 -0.175645E-02 -0.117793E-02 -0.462004E-03  0.379395E-03
  0.130946E-02  0.227247E-02  0.319905E-02  0.402034E-02  0.465985E-02  0.503088E-02
  0.504222E-02  0.461484E-02  0.376487E-02  0.258802E-02  0.115685E-02 -0.467646E-03
 -0.216576E-02 -0.375813E-02 -0.505491E-02 -0.590033E-02 -0.619422E-02 -0.791058E-02
 -0.764426E-02 -0.685779E-02 -0.559541E-02 -0.396096E-02 -0.212955E-02 -0.318214E-03
  0.128397E-02  0.258801E-02  0.358640E-02  0.422786E-02  0.442891E-02  0.422102E-02
  0.371079E-02  0.299401E-02  0.215433E-02  0.125814E-02  0.371776E-03 -0.446214E-03
 -0.115543E-02 -0.173732E-02 -0.219016E-02 -0.252148E-02 -0.274544E-02 -0.287845E-02
 -0.293966E-02 -0.294999E-02 -0.293027E-02 -0.289485E-02 -0.285562E-02 -0.282191E-02
 -0.279971E-02 -0.279186E-02 -0.279971E-02 -0.282191E-02 -0.285562E-02 -0.289485E-02
 -0.293027E-02 -0.294999E-02 -0.293966E-02 -0.287845E-02 -0.274544E-02 -0.252148E-02
 -0.219016E-02 -0.173732E-02 -0.115543E-02 -0.446214E-03  0.371776E-03  0.125814E-02
  0.215433E-02  0.299401E-02  0.371079E-02  0.422102E-02  0.442891E-02  0.422786E-02
  0.358640E-02  0.258801E-02  0.128397E-02 -0.318214E-03 -0.212955E-02 -0.396096E-02
 -0.559541E-02 -0.685779E-02 -0.764426E-02 -0.791058E-02 -0.832585E-02 -0.820260E-02
 -0.778539E-02 -0.696579E-02 -0.567273E-02 -0.397394E-02 -0.209524E-02 -0.318219E-03
  0.115684E-02  0.228956E-02  0.310919E-02  0.354772E-02  0.355206E-02  0.320958E-02
  0.263241E-02  0.191047E-02  0.111292E-02  0.299918E-03 -0.468153E-03 -0.114772E-02
 -0.171448E-02 -0.216330E-02 -0.249796E-02 -0.273076E-02 -0.287591E-02 -0.294999E-02
 -0.297348E-02 -0.296444E-02 -0.293687E-02 -0.290363E-02 -0.287442E-02 -0.285433E-02
 -0.284666E-02 -0.285433E-02 -0.287442E-02 -0.290363E-02 -0.293687E-02 -0.296444E-02
 -0.297348E-02 -0.294999E-02 -0.287591E-02 -0.273076E-02 -0.249796E-02 -0.216330E-02
 -0.171448E-02 -0.114772E-02 -0.468153E-03  0.299918E-03  0.111292E-02  0.191047E-02
  0.263241E-02  0.320958E-02  0.355206E-02  0.354772E-02  0.310919E-02  0.228956E-02
  0.115684E-02 -0.318219E-03 -0.209524E-02 -0.397394E-02 -0.567273E-02 -0.696579E-02
 -0.778539E-02 -0.820260E-02 -0.832585E-02 -0.614043E-02 -0.633075E-02 -0.674668E-02
 -0.700166E-02 -0.669009E-02 -0.562701E-02 -0.397393E-02 -0.212955E-02 -0.467663E-03
  0.836811E-03  0.181284E-02  0.247248E-02  0.271792E-02  0.257293E-02  0.215965E-02
  0.157546E-02  0.895620E-03  0.175803E-03 -0.525041E-03 -0.115893E-02 -0.169668E-02
 -0.212933E-02 -0.245781E-02 -0.269258E-02 -0.284547E-02 -0.293027E-02 -0.296444E-02
 -0.296352E-02 -0.294404E-02 -0.291780E-02 -0.289272E-02 -0.287489E-02 -0.286810E-02
 -0.287489E-02 -0.289272E-02 -0.291780E-02 -0.294404E-02 -0.296352E-02 -0.296444E-02
 -0.293027E-02 -0.284547E-02 -0.269258E-02 -0.245781E-02 -0.212933E-02 -0.169668E-02
 -0.115893E-02 -0.525041E-03  0.175803E-03  0.895620E-03  0.157546E-02  0.215965E-02
  0.257293E-02  0.271792E-02  0.247248E-02  0.181284E-02  0.836811E-03 -0.467663E-03
 -0.212955E-02 -0.397393E-02 -0.562701E-02 -0.669009E-02 -0.700166E-02 -0.674668E-02
 -0.633075E-02 -0.614043E-02 -0.606706E-03 -0.130431E-02 -0.307806E-02 -0.511651E-02
 -0.650922E-02 -0.669008E-02 -0.567272E-02 -0.396095E-02 -0.216577E-02 -0.663831E-03
  0.478195E-03  0.132880E-02  0.181194E-02  0.187744E-02  0.163651E-02  0.119762E-02
  0.640855E-03  0.220308E-04 -0.603175E-03 -0.118378E-02 -0.168581E-02 -0.209610E-02
 -0.241384E-02 -0.264653E-02 -0.280313E-02 -0.289485E-02 -0.293687E-02 -0.294404E-02
 -0.293240E-02 -0.291144E-02 -0.288936E-02 -0.287379E-02 -0.286826E-02 -0.287379E-02
 -0.288936E-02 -0.291144E-02 -0.293240E-02 -0.294404E-02 -0.293687E-02 -0.289485E-02
 -0.280313E-02 -0.264653E-02 -0.241384E-02 -0.209610E-02 -0.168581E-02 -0.118378E-02
 -0.603175E-03  0.220308E-04  0.640855E-03  0.119762E-02  0.163651E-02  0.187744E-02
  0.181194E-02  0.132880E-02  0.478195E-03 -0.663831E-03 -0.216577E-02 -0.396095E-02
 -0.567272E-02 -0.669008E-02 -0.650922E-02 -0.511651E-02 -0.307806E-02 -0.130431E-02
 -0.606706E-03  0.772456E-02  0.637979E-02  0.286814E-02 -0.147750E-02 -0.511651E-02
 -0.700164E-02 -0.696577E-02 -0.559538E-02 -0.375813E-02 -0.207539E-02 -0.759126E-03
  0.254814E-03  0.945250E-03  0.121130E-02  0.113303E-02  0.830766E-03  0.388314E-03
 -0.135413E-03 -0.687184E-03 -0.121526E-02 -0.168181E-02 -0.206882E-02 -0.237397E-02
 -0.260229E-02 -0.275996E-02 -0.285562E-02 -0.290363E-02 -0.291780E-02 -0.291144E-02
 -0.289422E-02 -0.287509E-02 -0.286071E-02 -0.285556E-02 -0.286071E-02 -0.287509E-02
 -0.289422E-02 -0.291144E-02 -0.291780E-02 -0.290363E-02 -0.285562E-02 -0.275996E-02
 -0.260229E-02 -0.237397E-02 -0.206882E-02 -0.168181E-02 -0.121526E-02 -0.687184E-03
 -0.135413E-03  0.388314E-03  0.830766E-03  0.113303E-02  0.121130E-02  0.945250E-03
  0.254814E-03 -0.759126E-03 -0.207539E-02 -0.375813E-02 -0.559538E-02 -0.696577E-02
 -0.700164E-02 -0.511651E-02 -0.147750E-02  0.286814E-02  0.637979E-02  0.772456E-02
  0.168484E-01  0.148421E-01  0.955930E-02  0.286813E-02 -0.307806E-02 -0.674666E-02
 -0.778536E-02 -0.685775E-02 -0.505490E-02 -0.323763E-02 -0.176645E-02 -0.619463E-03
  0.229331E-03  0.659649E-03  0.715765E-03  0.524935E-03  0.175512E-03 -0.270900E-03
 -0.762216E-03 -0.124606E-02 -0.168245E-02 -0.204940E-02 -0.234286E-02 -0.256580E-02
 -0.272324E-02 -0.282191E-02 -0.287442E-02 -0.289272E-02 -0.288936E-02 -0.287509E-02
 -0.285823E-02 -0.284453E-02 -0.283948E-02 -0.284453E-02 -0.285823E-02 -0.287509E-02
 -0.288936E-02 -0.289272E-02 -0.287442E-02 -0.282191E-02 -0.272324E-02 -0.256580E-02
 -0.234286E-02 -0.204940E-02 -0.168245E-02 -0.124606E-02 -0.762216E-03 -0.270900E-03
  0.175512E-03  0.524935E-03  0.715765E-03  0.659649E-03  0.229331E-03 -0.619463E-03
 -0.176645E-02 -0.323763E-02 -0.505490E-02 -0.685775E-02 -0.778536E-02 -0.674666E-02
 -0.307806E-02  0.286813E-02  0.955930E-02  0.148421E-01  0.168484E-01  0.239636E-01
  0.214640E-01  0.148420E-01  0.637977E-02 -0.130432E-02 -0.633073E-02 -0.820256E-02
 -0.764422E-02 -0.590032E-02 -0.400418E-02 -0.242688E-02 -0.118966E-02 -0.242052E-03
  0.295169E-03  0.440709E-03  0.323118E-03  0.351856E-04 -0.361044E-03 -0.813427E-03
 -0.126789E-02 -0.168390E-02 -0.203750E-02 -0.232349E-02 -0.254263E-02 -0.269945E-02
 -0.279971E-02 -0.285433E-02 -0.287489E-02 -0.287379E-02 -0.286071E-02 -0.284453E-02
 -0.283142E-02 -0.282645E-02 -0.283142E-02 -0.284453E-02 -0.286071E-02 -0.287379E-02
 -0.287489E-02 -0.285433E-02 -0.279971E-02 -0.269945E-02 -0.254263E-02 -0.232349E-02