
     Program BANDS v.7.0 starts on  3Jan2025 at  6:16:27 

     This program is part of the open-source Quantum ESPRESSO suite
     for quantum simulation of materials; please cite
         "P. Giannozzi et al., J. Phys.:Condens. Matter 21 395502 (2009);
         "P. Giannozzi et al., J. Phys.:Condens. Matter 29 465901 (2017);
         "P. Giannozzi et al., J. Chem. Phys. 152 154105 (2020);
          URL http://www.quantum-espresso.org", 
     in publications or presentations arising from this work. More details at
     http://www.quantum-espresso.org/quote

     Parallel version (MPI & OpenMP), running on       2 processor cores
     Number of MPI processes:                 1
     Threads/MPI process:                     2

     MPI processes distributed on     1 nodes
     159 MiB available memory on the printing compute node when the environment starts


     Reading xml data from directory:

     ./outputs/gaas.save/
     Message from routine volume:
     axis vectors are left-handed
     file Ga.pbe-dn-kjpaw_psl.1.0.0.UPF: wavefunction(s)  4S renormalized

     IMPORTANT: XC functional enforced from input :
     Exchange-correlation= PBE
                           (   1   4   3   4   0   0   0)
     Any further DFT definition will be discarded
     Please, verify this is what you really want


     G-vector sticks info
     --------------------
     sticks:   dense  smooth     PW     G-vecs:    dense   smooth      PW
     Sum         769     769    241                14361    14361    2397

     Using Slab Decomposition


     Check: negative core charge=   -0.000002
     Reading collected, re-writing distributed wavefunctions
     high-symmetry point:  0.5000 0.5000 0.5000   x coordinate   0.0000
     high-symmetry point:  0.0000 0.0000 0.0000   x coordinate   0.8660
     high-symmetry point:  0.0000 1.0000 0.0000   x coordinate   1.8660
     high-symmetry point:  0.0000 0.7500 0.7500   x coordinate   2.6566
     high-symmetry point:  0.0000 0.0000 0.0000   x coordinate   3.7173

     Plottable bands (eV) written to file GaAs_bands_wo_soc.dat.gnu
     Bands written to file GaAs_bands_wo_soc.dat

 **************************************************************************

                    xk=(   0.50000,   0.50000,   0.50000  )

     point group C_3v (3m)  
     there are  3 classes
     the character table:

       E     2C3   3s_v 
A_1    1.00  1.00  1.00
A_2    1.00  1.00 -1.00
E      2.00 -1.00  0.00

     the symmetry operations in each class and the name of the first element:

     E        1
                                                                 
     2C3      2    3
                                                                 
     3s_v     4    5    6
                                                                 

     Band symmetry, C_3v (3m)   point group:

     e(  1 -  1) =     -8.14098  eV     1   --> A_1  L_1       
     e(  2 -  3) =     -8.04257  eV     2   --> E    L_3       
     e(  4 -  5) =     -7.97926  eV     2   --> E    L_3       
     e(  6 -  6) =     -4.24430  eV     1   --> A_1  L_1       
     e(  7 -  7) =      0.07803  eV     1   --> A_1  L_1       
     e(  8 -  9) =      5.58110  eV     2   --> E    L_3       
     e( 10 - 10) =      7.72099  eV     1   --> A_1  L_1       
     e( 11 - 12) =     11.35909  eV     2   --> E    L_3       
     e( 13 - 13) =     14.54015  eV     1   --> A_1  L_1       

 **************************************************************************

 **************************************************************************

                    xk=(   0.47500,   0.47500,   0.47500  )

     Band symmetry, C_3v (3m)   point group:

     e(  1 -  1) =     -8.14058  eV     1   --> A_1  L_1       
     e(  2 -  3) =     -8.04269  eV     2   --> E    L_3       
     e(  4 -  5) =     -7.97938  eV     2   --> E    L_3       
     e(  6 -  6) =     -4.26286  eV     1   --> A_1  L_1       
     e(  7 -  7) =      0.11124  eV     1   --> A_1  L_1       
     e(  8 -  9) =      5.58599  eV     2   --> E    L_3       
     e( 10 - 10) =      7.72608  eV     1   --> A_1  L_1       
     e( 11 - 12) =     11.36188  eV     2   --> E    L_3       
     e( 13 - 13) =     14.54199  eV     1   --> A_1  L_1       

 **************************************************************************

 **************************************************************************

                    xk=(   0.45000,   0.45000,   0.45000  )

     Band symmetry, C_3v (3m)   point group:

     e(  1 -  1) =     -8.13930  eV     1   --> A_1  L_1       
     e(  2 -  3) =     -8.04292  eV     2   --> E    L_3       
     e(  4 -  5) =     -7.97959  eV     2   --> E    L_3       
     e(  6 -  6) =     -4.31670  eV     1   --> A_1  L_1       
     e(  7 -  7) =      0.20900  eV     1   --> A_1  L_1       
     e(  8 -  9) =      5.60086  eV     2   --> E    L_3       
     e( 10 - 10) =      7.74137  eV     1   --> A_1  L_1       
     e( 11 - 12) =     11.37016  eV     2   --> E    L_3       
     e( 13 - 13) =     14.54522  eV     1   --> A_1  L_1       

 **************************************************************************

 **************************************************************************

                    xk=(   0.42500,   0.42500,   0.42500  )

     Band symmetry, C_3v (3m)   point group:

     e(  1 -  1) =     -8.13727  eV     1   --> A_1  L_1       
     e(  2 -  3) =     -8.04332  eV     2   --> E    L_3       
     e(  4 -  5) =     -7.97997  eV     2   --> E    L_3       
     e(  6 -  6) =     -4.40088  eV     1   --> A_1  L_1       
     e(  7 -  7) =      0.36624  eV     1   --> A_1  L_1       
     e(  8 -  9) =      5.62551  eV     2   --> E    L_3       
     e( 10 - 10) =      7.76664  eV     1   --> A_1  L_1       
     e( 11 - 12) =     11.38263  eV     2   --> E    L_3       
     e( 13 - 13) =     14.54049  eV     1   --> A_1  L_1       

 **************************************************************************

 **************************************************************************

                    xk=(   0.40000,   0.40000,   0.40000  )

     Band symmetry, C_3v (3m)   point group:

     e(  1 -  1) =     -8.13443  eV     1   --> A_1  L_1       
     e(  2 -  3) =     -8.04386  eV     2   --> E    L_3       
     e(  4 -  5) =     -7.98040  eV     2   --> E    L_3       
     e(  6 -  6) =     -4.50874  eV     1   --> A_1  L_1       
     e(  7 -  7) =      0.57612  eV     1   --> A_1  L_1       
     e(  8 -  9) =      5.65980  eV     2   --> E    L_3       
     e( 10 - 10) =      7.80172  eV     1   --> A_1  L_1       
     e( 11 - 12) =     11.39735  eV     2   --> E    L_3       
     e( 13 - 13) =     14.50715  eV     1   --> A_1  L_1       

 **************************************************************************

 **************************************************************************

                    xk=(   0.37500,   0.37500,   0.37500  )

     Band symmetry, C_3v (3m)   point group:

     e(  1 -  1) =     -8.13088  eV     1   --> A_1  L_1       
     e(  2 -  3) =     -8.04458  eV     2   --> E    L_3       
     e(  4 -  5) =     -7.98093  eV     2   --> E    L_3       
     e(  6 -  6) =     -4.63327  eV     1   --> A_1  L_1       
     e(  7 -  7) =      0.83134  eV     1   --> A_1  L_1       
     e(  8 -  9) =      5.70343  eV     2   --> E    L_3       
     e( 10 - 10) =      7.84619  eV     1   --> A_1  L_1       
     e( 11 - 12) =     11.41134  eV     2   --> E    L_3       
     e( 13 - 13) =     14.40648  eV     1   --> A_1  L_1       

 **************************************************************************

 **************************************************************************

                    xk=(   0.35000,   0.35000,   0.35000  )

     Band symmetry, C_3v (3m)   point group:

     e(  1 -  1) =     -8.12665  eV     1   --> A_1  L_1       
     e(  2 -  3) =     -8.04548  eV     2   --> E    L_3       
     e(  4 -  5) =     -7.98148  eV     2   --> E    L_3       
     e(  6 -  6) =     -4.76804  eV     1   --> A_1  L_1       
     e(  7 -  7) =      1.12510  eV     1   --> A_1  L_1       
     e(  8 -  9) =      5.75605  eV     2   --> E    L_3       
     e( 10 - 10) =      7.89949  eV     1   --> A_1  L_1       
     e( 11 - 12) =     11.42082  eV     2   --> E    L_3       
     e( 13 - 13) =     14.19787  eV     1   --> A_1  L_1       

 **************************************************************************

 **************************************************************************

                    xk=(   0.32500,   0.32500,   0.32500  )

     Band symmetry, C_3v (3m)   point group:

     e(  1 -  1) =     -8.12187  eV     1   --> A_1  L_1       
     e(  2 -  3) =     -8.04655  eV     2   --> E    L_3       
     e(  4 -  5) =     -7.98204  eV     2   --> E    L_3       
     e(  6 -  6) =     -4.90761  eV     1   --> A_1  L_1       
     e(  7 -  7) =      1.45150  eV     1   --> A_1  L_1       
     e(  8 -  9) =      5.81719  eV     2   --> E    L_3       
     e( 10 - 10) =      7.96068  eV     1   --> A_1  L_1       
     e( 11 - 12) =     11.42144  eV     2   --> E    L_3       
     e( 13 - 13) =     13.88495  eV     1   --> A_1  L_1       

 **************************************************************************

 **************************************************************************

                    xk=(   0.30000,   0.30000,   0.30000  )

     Band symmetry, C_3v (3m)   point group:

     e(  1 -  1) =     -8.11653  eV     1   --> A_1  L_1       
     e(  2 -  3) =     -8.04776  eV     2   --> E    L_3       
     e(  4 -  5) =     -7.98252  eV     2   --> E    L_3       
     e(  6 -  6) =     -5.04760  eV     1   --> A_1  L_1       
     e(  7 -  7) =      1.80557  eV     1   --> A_1  L_1       
     e(  8 -  9) =      5.88626  eV     2   --> E    L_3       
     e( 10 - 10) =      8.02859  eV     1   --> A_1  L_1       
     e( 11 - 12) =     11.40834  eV     2   --> E    L_3       
     e( 13 - 13) =     13.50933  eV     1   --> A_1  L_1       

 **************************************************************************

 **************************************************************************

                    xk=(   0.27500,   0.27500,   0.27500  )

     Band symmetry, C_3v (3m)   point group:

     e(  1 -  1) =     -8.11077  eV     1   --> A_1  L_1       
     e(  2 -  3) =     -8.04913  eV     2   --> E    L_3       
     e(  4 -  5) =     -7.98296  eV     2   --> E    L_3       
     e(  6 -  6) =     -5.18454  eV     1   --> A_1  L_1       
     e(  7 -  7) =      2.18313  eV     1   --> A_1  L_1       
     e(  8 -  9) =      5.96239  eV     2   --> E    L_3       
     e( 10 - 10) =      8.10123  eV     1   --> A_1  L_1       
     e( 11 - 12) =     11.37697  eV     2   --> E    L_3       
     e( 13 - 13) =     13.10616  eV     1   --> A_1  L_1       

 **************************************************************************

 **************************************************************************

                    xk=(   0.25000,   0.25000,   0.25000  )

     Band symmetry, C_3v (3m)   point group:

     e(  1 -  1) =     -8.10469  eV     1   --> A_1  L_1       
     e(  2 -  3) =     -8.05062  eV     2   --> E    L_3       
     e(  4 -  5) =     -7.98334  eV     2   --> E    L_3       
     e(  6 -  6) =     -5.31573  eV     1   --> A_1  L_1       
     e(  7 -  7) =      2.58061  eV     1   --> A_1  L_1       
     e(  8 -  9) =      6.04458  eV     2   --> E    L_3       
     e( 10 - 10) =      8.17573  eV     1   --> A_1  L_1       
     e( 11 - 12) =     11.32421  eV     2   --> E    L_3       
     e( 13 - 13) =     12.69574  eV     1   --> A_1  L_1       

 **************************************************************************

 **************************************************************************

                    xk=(   0.22500,   0.22500,   0.22500  )

     Band symmetry, C_3v (3m)   point group:

     e(  1 -  1) =     -8.09851  eV     1   --> A_1  L_1       
     e(  2 -  3) =     -8.05220  eV     2   --> E    L_3       
     e(  4 -  5) =     -7.98365  eV     2   --> E    L_3       
     e(  6 -  6) =     -5.43905  eV     1   --> A_1  L_1       
     e(  7 -  7) =      2.99482  eV     1   --> A_1  L_1       
     e(  8 -  9) =      6.13151  eV     2   --> E    L_3       
     e( 10 - 10) =      8.24766  eV     1   --> A_1  L_1       
     e( 11 - 12) =     11.24905  eV     2   --> E    L_3       
     e( 13 - 13) =     12.28998  eV     1   --> A_1  L_1       

 **************************************************************************

 **************************************************************************

                    xk=(   0.20000,   0.20000,   0.20000  )

     Band symmetry, C_3v (3m)   point group:

     e(  1 -  1) =     -8.09235  eV     1   --> A_1  L_1       
     e(  2 -  3) =     -8.05383  eV     2   --> E    L_3       
     e(  4 -  5) =     -7.98387  eV     2   --> E    L_3       
     e(  6 -  6) =     -5.55287  eV     1   --> A_1  L_1       
     e(  7 -  7) =      3.42280  eV     1   --> A_1  L_1       
     e(  8 -  9) =      6.22157  eV     2   --> E    L_3       
     e( 10 - 10) =      8.31043  eV     1   --> A_1  L_1       
     e( 11 - 12) =     11.15354  eV     2   --> E    L_3       
     e( 13 - 13) =     11.89844  eV     1   --> A_1  L_1       

 **************************************************************************

 **************************************************************************

                    xk=(   0.17500,   0.17500,   0.17500  )

     Band symmetry, C_3v (3m)   point group:

     e(  1 -  1) =     -8.08626  eV     1   --> A_1  L_1       
     e(  2 -  3) =     -8.05539  eV     2   --> E    L_3       
     e(  4 -  5) =     -7.98397  eV     2   --> E    L_3       
     e(  6 -  6) =     -5.65585  eV     1   --> A_1  L_1       
     e(  7 -  7) =      3.86180  eV     1   --> A_1  L_1       
     e(  8 -  9) =      6.31283  eV     2   --> E    L_3       
     e( 10 - 10) =      8.35408  eV     1   --> A_1  L_1       
     e( 11 - 12) =     11.04249  eV     2   --> E    L_3       
     e( 13 - 13) =     11.53126  eV     1   --> A_1  L_1       

 **************************************************************************

 **************************************************************************

                    xk=(   0.15000,   0.15000,   0.15000  )

     Band symmetry, C_3v (3m)   point group:

     e(  1 -  1) =     -8.08054  eV     1   --> A_1  L_1       
     e(  2 -  3) =     -8.05693  eV     2   --> E    L_3       
     e(  4 -  5) =     -7.98406  eV     2   --> E    L_3       
     e(  6 -  6) =     -5.74697  eV     1   --> A_1  L_1       
     e(  7 -  7) =      4.30869  eV     1   --> A_1  L_1       
     e(  8 -  9) =      6.40264  eV     2   --> E    L_3       
     e( 10 - 10) =      8.36418  eV     1   --> A_1  L_1       
     e( 11 - 12) =     10.92253  eV     2   --> E    L_3       
     e( 13 - 13) =     11.20095  eV     1   --> A_1  L_1       

 **************************************************************************

 **************************************************************************

                    xk=(   0.12500,   0.12500,   0.12500  )

     Band symmetry, C_3v (3m)   point group:

     e(  1 -  1) =     -8.07536  eV     1   --> A_1  L_1       
     e(  2 -  3) =     -8.05833  eV     2   --> E    L_3       
     e(  4 -  5) =     -7.98410  eV     2   --> E    L_3       
     e(  6 -  6) =     -5.82538  eV     1   --> A_1  L_1       
     e(  7 -  7) =      4.76020  eV     1   --> A_1  L_1       
     e(  8 -  9) =      6.48811  eV     2   --> E    L_3       
     e( 10 - 10) =      8.32220  eV     1   --> A_1  L_1       
     e( 11 - 12) =     10.80170  eV     2   --> E    L_3       
     e( 13 - 13) =     10.92294  eV     1   --> A_1  L_1       

 **************************************************************************

 **************************************************************************

                    xk=(   0.10000,   0.10000,   0.10000  )

     Band symmetry, C_3v (3m)   point group:

     e(  1 -  1) =     -8.07078  eV     1   --> A_1  L_1       
     e(  2 -  3) =     -8.05955  eV     2   --> E    L_3       
     e(  4 -  5) =     -7.98408  eV     2   --> E    L_3       
     e(  6 -  6) =     -5.89041  eV     1   --> A_1  L_1       
     e(  7 -  7) =      5.21251  eV     1   --> A_1  L_1       
     e(  8 -  9) =      6.56582  eV     2   --> E    L_3       
     e( 10 - 10) =      8.20980  eV     1   --> A_1  L_1       
     e( 11 - 12) =     10.68823  eV     2   --> E    L_3       
     e( 13 - 13) =     10.71182  eV     1   --> A_1  L_1       

 **************************************************************************

 **************************************************************************

                    xk=(   0.07500,   0.07500,   0.07500  )

     Band symmetry, C_3v (3m)   point group:

     e(  1 -  1) =     -8.06701  eV     1   --> A_1  L_1       
     e(  2 -  3) =     -8.06053  eV     2   --> E    L_3       
     e(  4 -  5) =     -7.98404  eV     2   --> E    L_3       
     e(  6 -  6) =     -5.94154  eV     1   --> A_1  L_1       
     e(  7 -  7) =      5.66035  eV     1   --> A_1  L_1       
     e(  8 -  9) =      6.63201  eV     2   --> E    L_3       
     e( 10 - 10) =      8.01795  eV     1   --> A_1  L_1       
     e( 11 - 11) =     10.57231  eV     1   --> A_1  L_1       
     e( 12 - 13) =     10.59000  eV     2   --> E    L_3       

 **************************************************************************

 **************************************************************************

                    xk=(   0.05000,   0.05000,   0.05000  )

     Band symmetry, C_3v (3m)   point group:

     e(  1 -  1) =     -8.06420  eV     1   --> A_1  L_1       
     e(  2 -  3) =     -8.06129  eV     2   --> E    L_3       
     e(  4 -  5) =     -7.98401  eV     2   --> E    L_3       
     e(  6 -  6) =     -5.97834  eV     1   --> A_1  L_1       
     e(  7 -  7) =      6.09519  eV     1   --> A_1  L_1       
     e(  8 -  9) =      6.68275  eV     2   --> E    L_3       
     e( 10 - 10) =      7.75489  eV     1   --> A_1  L_1       
     e( 11 - 11) =     10.49447  eV     1   --> A_1  L_1       
     e( 12 - 13) =     10.51404  eV     2   --> E    L_3       

 **************************************************************************

 **************************************************************************

                    xk=(   0.02500,   0.02500,   0.02500  )

     Band symmetry, C_3v (3m)   point group:

     e(  1 -  1) =     -8.06247  eV     1   --> A_1  L_1       
     e(  2 -  3) =     -8.06175  eV     2   --> E    L_3       
     e(  4 -  5) =     -7.98399  eV     2   --> E    L_3       
     e(  6 -  6) =     -6.00054  eV     1   --> A_1  L_1       
     e(  7 -  7) =      6.49477  eV     1   --> A_1  L_1       
     e(  8 -  9) =      6.71481  eV     2   --> E    L_3       
     e( 10 - 10) =      7.45200  eV     1   --> A_1  L_1       
     e( 11 - 11) =     10.45915  eV     1   --> A_1  L_1       
     e( 12 - 13) =     10.46598  eV     2   --> E    L_3       

 **************************************************************************

 **************************************************************************

                    xk=(   0.00000,   0.00000,   0.00000  )

     point group T_d (-43m) 
     there are  5 classes
     the character table:

       E     8C3   3C2   6S4   6s_d 
A_1    1.00  1.00  1.00  1.00  1.00
A_2    1.00  1.00  1.00 -1.00 -1.00
E      2.00 -1.00  2.00  0.00  0.00
T_1    3.00  0.00 -1.00  1.00 -1.00
T_2    3.00  0.00 -1.00 -1.00  1.00

     the symmetry operations in each class and the name of the first element:

     E        1
                                                                 
     8C3      5    7    8    6   12    9   10   11
                                                                 
     3C2      2    3    4
                                                                 
     6S4     15   16   20   19   23   24
                                                                 
     6s_d    13   14   17   18   21   22
                                                                 

     Band symmetry, T_d (-43m)  point group:

     e(  1 -  3) =     -8.06191  eV     3   --> T_2  G_15 P_4  
     e(  4 -  5) =     -7.98400  eV     2   --> E    G_12 P_3  
     e(  6 -  6) =     -6.00796  eV     1   --> A_1  G_1  P_1  
     e(  7 -  9) =      6.72573  eV     3   --> T_2  G_15 P_4  
     e( 10 - 10) =      7.25198  eV     1   --> A_1  G_1  P_1  
     e( 11 - 13) =     10.44953  eV     3   --> T_2  G_15 P_4  

 **************************************************************************

 **************************************************************************

                    xk=(   0.00000,   0.05000,   0.00000  )

     point group C_2v (mm2) 
     there are  4 classes
     the character table:

       E     C2    s_v   s_v' 
A_1    1.00  1.00  1.00  1.00
A_2    1.00  1.00 -1.00 -1.00
B_1    1.00 -1.00  1.00 -1.00
B_2    1.00 -1.00 -1.00  1.00

     the symmetry operations in each class and the name of the first element:

     E        1
                                                                 
     C2       2
                                                                 
     s_v      4
                                                                 
     s_v'     3
                                                                 

     Band symmetry, C_2v (mm2)  point group:

     e(  1 -  1) =     -8.06285  eV     1   --> A_1  D_1  S_1  
     e(  2 -  3) =     -8.06159  eV     2   --> B_1  D_3  S_3  
     e(  2 -  3) =     -8.06159  eV     2   --> B_2  D_4  S_4  
     e(  4 -  4) =     -7.98410  eV     1   --> A_1  D_1  S_1  
     e(  5 -  5) =     -7.98390  eV     1   --> A_2  D_2  S_2  
     e(  6 -  6) =     -5.99807  eV     1   --> A_1  D_1  S_1  
     e(  7 -  7) =      6.46491  eV     1   --> A_1  D_1  S_1  
     e(  8 -  9) =      6.69183  eV     2   --> B_1  D_3  S_3  
     e(  8 -  9) =      6.69183  eV     2   --> B_2  D_4  S_4  
     e( 10 - 10) =      7.51127  eV     1   --> A_1  D_1  S_1  
     e( 11 - 11) =     10.41259  eV     1   --> A_1  D_1  S_1  
     e( 12 - 13) =     10.49598  eV     2   --> B_1  D_3  S_3  
     e( 12 - 13) =     10.49598  eV     2   --> B_2  D_4  S_4  

 **************************************************************************

 **************************************************************************

                    xk=(   0.00000,   0.10000,   0.00000  )

     Band symmetry, C_2v (mm2)  point group:

     e(  1 -  1) =     -8.06562  eV     1   --> A_1  D_1  S_1  
     e(  2 -  3) =     -8.06072  eV     2   --> B_1  D_3  S_3  
     e(  2 -  3) =     -8.06072  eV     2   --> B_2  D_4  S_4  
     e(  4 -  4) =     -7.98442  eV     1   --> A_1  D_1  S_1  
     e(  5 -  5) =     -7.98364  eV     1   --> A_2  D_2  S_2  
     e(  6 -  6) =     -5.96848  eV     1   --> A_1  D_1  S_1  
     e(  7 -  7) =      6.04638  eV     1   --> A_1  D_1  S_1  
     e(  8 -  9) =      6.59506  eV     2   --> B_1  D_3  S_3  
     e(  8 -  9) =      6.59506  eV     2   --> B_2  D_4  S_4  
     e( 10 - 10) =      7.92360  eV     1   --> A_1  D_1  S_1  
     e( 11 - 11) =     10.30905  eV     1   --> A_1  D_1  S_1  
     e( 12 - 13) =     10.63006  eV     2   --> B_1  D_3  S_3  
     e( 12 - 13) =     10.63006  eV     2   --> B_2  D_4  S_4  

 **************************************************************************

 **************************************************************************

                    xk=(   0.00000,   0.15000,   0.00000  )

     Band symmetry, C_2v (mm2)  point group:

     e(  1 -  1) =     -8.07009  eV     1   --> A_1  D_1  S_1  
     e(  2 -  3) =     -8.05931  eV     2   --> B_1  D_3  S_3  
     e(  2 -  3) =     -8.05931  eV     2   --> B_2  D_4  S_4  
     e(  4 -  4) =     -7.98505  eV     1   --> A_1  D_1  S_1  
     e(  5 -  5) =     -7.98321  eV     1   --> A_2  D_2  S_2  
     e(  6 -  6) =     -5.91943  eV     1   --> A_1  D_1  S_1  
     e(  7 -  7) =      5.60935  eV     1   --> A_1  D_1  S_1  
     e(  8 -  9) =      6.44830  eV     2   --> B_1  D_3  S_3  
     e(  8 -  9) =      6.44830  eV     2   --> B_2  D_4  S_4  
     e( 10 - 10) =      8.34436  eV     1   --> A_1  D_1  S_1  
     e( 11 - 11) =     10.15727  eV     1   --> A_1  D_1  S_1  
     e( 12 - 13) =     10.83872  eV     2   --> B_1  D_3  S_3  
     e( 12 - 13) =     10.83872  eV     2   --> B_2  D_4  S_4  

 **************************************************************************

 **************************************************************************

                    xk=(   0.00000,   0.20000,   0.00000  )

     Band symmetry, C_2v (mm2)  point group:

     e(  1 -  1) =     -8.07600  eV     1   --> A_1  D_1  S_1  
     e(  2 -  3) =     -8.05737  eV     2   --> B_1  D_3  S_3  
     e(  2 -  3) =     -8.05737  eV     2   --> B_2  D_4  S_4  
     e(  4 -  4) =     -7.98587  eV     1   --> A_1  D_1  S_1  
     e(  5 -  5) =     -7.98263  eV     1   --> A_2  D_2  S_2  
     e(  6 -  6) =     -5.85131  eV     1   --> A_1  D_1  S_1  
     e(  7 -  7) =      5.17027  eV     1   --> A_1  D_1  S_1  
     e(  8 -  9) =      6.26686  eV     2   --> B_1  D_3  S_3  
     e(  8 -  9) =      6.26686  eV     2   --> B_2  D_4  S_4  
     e( 10 - 10) =      8.74522  eV     1   --> A_1  D_1  S_1  
     e( 11 - 11) =      9.98113  eV     1   --> A_1  D_1  S_1  
     e( 12 - 13) =     11.10648  eV     2   --> B_1  D_3  S_3  
     e( 12 - 13) =     11.10648  eV     2   --> B_2  D_4  S_4  

 **************************************************************************

 **************************************************************************

                    xk=(   0.00000,   0.25000,   0.00000  )

     Band symmetry, C_2v (mm2)  point group:

     e(  1 -  1) =     -8.08305  eV     1   --> A_1  D_1  S_1  
     e(  2 -  3) =     -8.05493  eV     2   --> B_1  D_3  S_3  
     e(  2 -  3) =     -8.05493  eV     2   --> B_2  D_4  S_4  
     e(  4 -  4) =     -7.98693  eV     1   --> A_1  D_1  S_1  
     e(  5 -  5) =     -7.98193  eV     1   --> A_2  D_2  S_2  
     e(  6 -  6) =     -5.76464  eV     1   --> A_1  D_1  S_1  
     e(  7 -  7) =      4.73346  eV     1   --> A_1  D_1  S_1  
     e(  8 -  9) =      6.06444  eV     2   --> B_1  D_3  S_3  
     e(  8 -  9) =      6.06444  eV     2   --> B_2  D_4  S_4  
     e( 10 - 10) =      9.09106  eV     1   --> A_1  D_1  S_1  
     e( 11 - 11) =      9.81615  eV     1   --> A_1  D_1  S_1  
     e( 12 - 13) =     11.41934  eV     2   --> B_1  D_3  S_3  
     e( 12 - 13) =     11.41934  eV     2   --> B_2  D_4  S_4  

 **************************************************************************

 **************************************************************************

                    xk=(   0.00000,   0.30000,   0.00000  )

     Band symmetry, C_2v (mm2)  point group:

     e(  1 -  1) =     -8.09094  eV     1   --> A_1  D_1  S_1  
     e(  2 -  3) =     -8.05206  eV     2   --> B_1  D_3  S_3  
     e(  2 -  3) =     -8.05206  eV     2   --> B_2  D_4  S_4  
     e(  4 -  4) =     -7.98824  eV     1   --> A_1  D_1  S_1  
     e(  5 -  5) =     -7.98107  eV     1   --> A_2  D_2  S_2  
     e(  6 -  6) =     -5.66007  eV     1   --> A_1  D_1  S_1  
     e(  7 -  7) =      4.30075  eV     1   --> A_1  D_1  S_1  
     e(  8 -  9) =      5.85176  eV     2   --> B_1  D_3  S_3  
     e(  8 -  9) =      5.85176  eV     2   --> B_2  D_4  S_4  
     e( 10 - 10) =      9.27279  eV     1   --> A_1  D_1  S_1  
     e( 11 - 11) =      9.76379  eV     1   --> A_1  D_1  S_1  
     e( 12 - 13) =     11.76609  eV     2   --> B_1  D_3  S_3  
     e( 12 - 13) =     11.76609  eV     2   --> B_2  D_4  S_4  

 **************************************************************************

 **************************************************************************

                    xk=(   0.00000,   0.35000,   0.00000  )

     Band symmetry, C_2v (mm2)  point group:

     e(  1 -  1) =     -8.09936  eV     1   --> A_1  D_1  S_1  
     e(  2 -  3) =     -8.04880  eV     2   --> B_1  D_3  S_3  
     e(  2 -  3) =     -8.04880  eV     2   --> B_2  D_4  S_4  
     e(  4 -  4) =     -7.98982  eV     1   --> A_1  D_1  S_1  
     e(  5 -  5) =     -7.98011  eV     1   --> A_2  D_2  S_2  
     e(  6 -  6) =     -5.53836  eV     1   --> A_1  D_1  S_1  
     e(  7 -  7) =      3.87322  eV     1   --> A_1  D_1  S_1  
     e(  8 -  9) =      5.63685  eV     2   --> B_1  D_3  S_3  
     e(  8 -  9) =      5.63685  eV     2   --> B_2  D_4  S_4  
     e( 10 - 10) =      9.19697  eV     1   --> A_1  D_1  S_1  
     e( 11 - 11) =      9.89999  eV     1   --> A_1  D_1  S_1  
     e( 12 - 13) =     12.13835  eV     2   --> B_1  D_3  S_3  
     e( 12 - 13) =     12.13835  eV     2   --> B_2  D_4  S_4  

 **************************************************************************

 **************************************************************************

                    xk=(   0.00000,   0.40000,   0.00000  )

     Band symmetry, C_2v (mm2)  point group:

     e(  1 -  1) =     -8.10806  eV     1   --> A_1  D_1  S_1  
     e(  2 -  3) =     -8.04526  eV     2   --> B_1  D_3  S_3  
     e(  2 -  3) =     -8.04526  eV     2   --> B_2  D_4  S_4  
     e(  4 -  4) =     -7.99159  eV     1   --> A_1  D_1  S_1  
     e(  5 -  5) =     -7.97905  eV     1   --> A_2  D_2  S_2  
     e(  6 -  6) =     -5.40043  eV     1   --> A_1  D_1  S_1  
     e(  7 -  7) =      3.45179  eV     1   --> A_1  D_1  S_1  
     e(  8 -  9) =      5.42552  eV     2   --> B_1  D_3  S_3  
     e(  8 -  9) =      5.42552  eV     2   --> B_2  D_4  S_4  
     e( 10 - 10) =      9.03305  eV     1   --> A_1  D_1  S_1  
     e( 11 - 11) =     10.03275  eV     1   --> A_1  D_1  S_1  
     e( 12 - 13) =     12.52982  eV     2   --> B_1  D_3  S_3  
     e( 12 - 13) =     12.52982  eV     2   --> B_2  D_4  S_4  

 **************************************************************************

 **************************************************************************

                    xk=(   0.00000,   0.45000,   0.00000  )

     Band symmetry, C_2v (mm2)  point group:

     e(  1 -  1) =     -8.11679  eV     1   --> A_1  D_1  S_1  
     e(  2 -  3) =     -8.04152  eV     2   --> B_1  D_3  S_3  
     e(  2 -  3) =     -8.04152  eV     2   --> B_2  D_4  S_4  
     e(  4 -  4) =     -7.99349  eV     1   --> A_1  D_1  S_1  
     e(  5 -  5) =     -7.97796  eV     1   --> A_2  D_2  S_2  
     e(  6 -  6) =     -5.24736  eV     1   --> A_1  D_1  S_1  
     e(  7 -  7) =      3.03745  eV     1   --> A_1  D_1  S_1  
     e(  8 -  9) =      5.22203  eV     2   --> B_1  D_3  S_3  
     e(  8 -  9) =      5.22203  eV     2   --> B_2  D_4  S_4  
     e( 10 - 10) =      8.86089  eV     1   --> A_1  D_1  S_1  
     e( 11 - 11) =     10.06870  eV     1   --> A_1  D_1  S_1  
     e( 12 - 13) =     12.93572  eV     2   --> B_1  D_3  S_3  
     e( 12 - 13) =     12.93572  eV     2   --> B_2  D_4  S_4  

 **************************************************************************

 **************************************************************************

                    xk=(   0.00000,   0.50000,   0.00000  )

     Band symmetry, C_2v (mm2)  point group:

     e(  1 -  1) =     -8.12534  eV     1   --> A_1  D_1  S_1  
     e(  2 -  3) =     -8.03768  eV     2   --> B_1  D_3  S_3  
     e(  2 -  3) =     -8.03768  eV     2   --> B_2  D_4  S_4  
     e(  4 -  4) =     -7.99553  eV     1   --> A_1  D_1  S_1  
     e(  5 -  5) =     -7.97684  eV     1   --> A_2  D_2  S_2  
     e(  6 -  6) =     -5.08048  eV     1   --> A_1  D_1  S_1  
     e(  7 -  7) =      2.63139  eV     1   --> A_1  D_1  S_1  
     e(  8 -  9) =      5.02952  eV     2   --> B_1  D_3  S_3  
     e(  8 -  9) =      5.02952  eV     2   --> B_2  D_4  S_4  
     e( 10 - 10) =      8.69847  eV     1   --> A_1  D_1  S_1  
     e( 11 - 11) =     10.00001  eV     1   --> A_1  D_1  S_1  
     e( 12 - 13) =     13.35246  eV     2   --> B_1  D_3  S_3  
     e( 12 - 13) =     13.35246  eV     2   --> B_2  D_4  S_4  

 **************************************************************************

 **************************************************************************

                    xk=(   0.00000,   0.55000,   0.00000  )

     Band symmetry, C_2v (mm2)  point group:

     e(  1 -  1) =     -8.13352  eV     1   --> A_1  D_1  S_1  
     e(  2 -  3) =     -8.03379  eV     2   --> B_1  D_3  S_3  
     e(  2 -  3) =     -8.03379  eV     2   --> B_2  D_4  S_4  
     e(  4 -  4) =     -7.99760  eV     1   --> A_1  D_1  S_1  
     e(  5 -  5) =     -7.97573  eV     1   --> A_2  D_2  S_2  
     e(  6 -  6) =     -4.90146  eV     1   --> A_1  D_1  S_1  
     e(  7 -  7) =      2.23524  eV     1   --> A_1  D_1  S_1  
     e(  8 -  9) =      4.85044  eV     2   --> B_1  D_3  S_3  
     e(  8 -  9) =      4.85044  eV     2   --> B_2  D_4  S_4  
     e( 10 - 10) =      8.55216  eV     1   --> A_1  D_1  S_1  
     e( 11 - 11) =      9.85170  eV     1   --> A_1  D_1  S_1  
     e( 12 - 13) =     13.77721  eV     2   --> B_1  D_3  S_3  
     e( 12 - 13) =     13.77721  eV     2   --> B_2  D_4  S_4  

 **************************************************************************

 **************************************************************************

                    xk=(   0.00000,   0.60000,   0.00000  )

     Band symmetry, C_2v (mm2)  point group:

     e(  1 -  1) =     -8.14121  eV     1   --> A_1  D_1  S_1  
     e(  2 -  3) =     -8.03001  eV     2   --> B_1  D_3  S_3  
     e(  2 -  3) =     -8.03001  eV     2   --> B_2  D_4  S_4  
     e(  4 -  4) =     -7.99966  eV     1   --> A_1  D_1  S_1  
     e(  5 -  5) =     -7.97464  eV     1   --> A_2  D_2  S_2  
     e(  6 -  6) =     -4.71245  eV     1   --> A_1  D_1  S_1  
     e(  7 -  7) =      1.85115  eV     1   --> A_1  D_1  S_1  
     e(  8 -  9) =      4.68653  eV     2   --> B_1  D_3  S_3  
     e(  8 -  9) =      4.68653  eV     2   --> B_2  D_4  S_4  
     e( 10 - 10) =      8.42508  eV     1   --> A_1  D_1  S_1  
     e( 11 - 11) =      9.65633  eV     1   --> A_1  D_1  S_1  
     e( 12 - 13) =     14.20715  eV     2   --> B_1  D_3  S_3  
     e( 12 - 13) =     14.20715  eV     2   --> B_2  D_4  S_4  

 **************************************************************************

 **************************************************************************

                    xk=(   0.00000,   0.65000,   0.00000  )

     Band symmetry, C_2v (mm2)  point group:

     e(  1 -  1) =     -8.14824  eV     1   --> A_1  D_1  S_1  
     e(  2 -  3) =     -8.02635  eV     2   --> B_1  D_3  S_3  
     e(  2 -  3) =     -8.02635  eV     2   --> B_2  D_4  S_4  
     e(  4 -  4) =     -8.00158  eV     1   --> A_1  D_1  S_1  
     e(  5 -  5) =     -7.97360  eV     1   --> A_2  D_2  S_2  
     e(  6 -  6) =     -4.51632  eV     1   --> A_1  D_1  S_1  
     e(  7 -  7) =      1.48208  eV     1   --> A_1  D_1  S_1  
     e(  8 -  9) =      4.53927  eV     2   --> B_1  D_3  S_3  
     e(  8 -  9) =      4.53927  eV     2   --> B_2  D_4  S_4  
     e( 10 - 10) =      8.31925  eV     1   --> A_1  D_1  S_1  
     e( 11 - 11) =      9.44083  eV     1   --> A_1  D_1  S_1  
     e( 12 - 13) =     14.63978  eV     2   --> B_1  D_3  S_3  
     e( 12 - 13) =     14.63978  eV     2   --> B_2  D_4  S_4  

 **************************************************************************

 **************************************************************************

                    xk=(   0.00000,   0.70000,   0.00000  )

     Band symmetry, C_2v (mm2)  point group:

     e(  1 -  1) =     -8.15452  eV     1   --> A_1  D_1  S_1  
     e(  2 -  3) =     -8.02295  eV     2   --> B_1  D_3  S_3  
     e(  2 -  3) =     -8.02295  eV     2   --> B_2  D_4  S_4  
     e(  4 -  4) =     -8.00348  eV     1   --> A_1  D_1  S_1  
     e(  5 -  5) =     -7.97265  eV     1   --> A_2  D_2  S_2  
     e(  6 -  6) =     -4.31692  eV     1   --> A_1  D_1  S_1  
     e(  7 -  7) =      1.13204  eV     1   --> A_1  D_1  S_1  
     e(  8 -  9) =      4.40976  eV     2   --> B_1  D_3  S_3  
     e(  8 -  9) =      4.40976  eV     2   --> B_2  D_4  S_4  
     e( 10 - 10) =      8.23583  eV     1   --> A_1  D_1  S_1  
     e( 11 - 11) =      9.22329  eV     1   --> A_1  D_1  S_1  
     e( 12 - 13) =     15.07143  eV     2   --> B_1  D_3  S_3  
     e( 12 - 13) =     15.07143  eV     2   --> B_2  D_4  S_4  

 **************************************************************************

 **************************************************************************

                    xk=(   0.00000,   0.75000,   0.00000  )

     Band symmetry, C_2v (mm2)  point group:

     e(  1 -  1) =     -8.15998  eV     1   --> A_1  D_1  S_1  
     e(  2 -  3) =     -8.01989  eV     2   --> B_1  D_3  S_3  
     e(  2 -  3) =     -8.01989  eV     2   --> B_2  D_4  S_4  
     e(  4 -  4) =     -8.00515  eV     1   --> A_1  D_1  S_1  
     e(  5 -  5) =     -7.97179  eV     1   --> A_2  D_2  S_2  
     e(  6 -  6) =     -4.11957  eV     1   --> A_1  D_1  S_1  
     e(  7 -  7) =      0.80660  eV     1   --> A_1  D_1  S_1  
     e(  8 -  9) =      4.29886  eV     2   --> B_1  D_3  S_3  
     e(  8 -  9) =      4.29886  eV     2   --> B_2  D_4  S_4  
     e( 10 - 10) =      8.17582  eV     1   --> A_1  D_1  S_1  
     e( 11 - 11) =      9.01580  eV     1   --> A_1  D_1  S_1  
     e( 12 - 13) =     15.49713  eV     2   --> B_1  D_3  S_3  
     e( 12 - 13) =     15.49713  eV     2   --> B_2  D_4  S_4  

 **************************************************************************

 **************************************************************************

                    xk=(   0.00000,   0.80000,   0.00000  )

     Band symmetry, C_2v (mm2)  point group:

     e(  1 -  1) =     -8.16456  eV     1   --> A_1  D_1  S_1  
     e(  2 -  3) =     -8.01728  eV     2   --> B_1  D_3  S_3  
     e(  2 -  3) =     -8.01728  eV     2   --> B_2  D_4  S_4  
     e(  4 -  4) =     -8.00659  eV     1   --> A_1  D_1  S_1  
     e(  5 -  5) =     -7.97104  eV     1   --> A_2  D_2  S_2  
     e(  6 -  6) =     -3.93160  eV     1   --> A_1  D_1  S_1  
     e(  7 -  7) =      0.51334  eV     1   --> A_1  D_1  S_1  
     e(  8 -  9) =      4.20724  eV     2   --> B_1  D_3  S_3  
     e(  8 -  9) =      4.20724  eV     2   --> B_2  D_4  S_4  
     e( 10 - 10) =      8.13961  eV     1   --> A_1  D_1  S_1  
     e( 11 - 11) =      8.82580  eV     1   --> A_1  D_1  S_1  
     e( 12 - 13) =     15.90828  eV     2   --> B_1  D_3  S_3  
     e( 12 - 13) =     15.90828  eV     2   --> B_2  D_4  S_4  

 **************************************************************************

 **************************************************************************

                    xk=(   0.00000,   0.85000,   0.00000  )

     Band symmetry, C_2v (mm2)  point group:

     e(  1 -  1) =     -8.16810  eV     1   --> A_1  D_1  S_1  
     e(  2 -  3) =     -8.01517  eV     2   --> B_1  D_3  S_3  
     e(  2 -  3) =     -8.01517  eV     2   --> B_2  D_4  S_4  
     e(  4 -  4) =     -8.00780  eV     1   --> A_1  D_1  S_1  
     e(  5 -  5) =     -7.97043  eV     1   --> A_2  D_2  S_2  
     e(  6 -  6) =     -3.76297  eV     1   --> A_1  D_1  S_1  
     e(  7 -  7) =      0.26250  eV     1   --> A_1  D_1  S_1  
     e(  8 -  9) =      4.13547  eV     2   --> B_1  D_3  S_3  
     e(  8 -  9) =      4.13547  eV     2   --> B_2  D_4  S_4  
     e( 10 - 10) =      8.12722  eV     1   --> A_1  D_1  S_1  
     e( 11 - 11) =      8.65838  eV     1   --> A_1  D_1  S_1  
     e( 12 - 13) =     16.29037  eV     2   --> B_1  D_3  S_3  
     e( 12 - 13) =     16.29037  eV     2   --> B_2  D_4  S_4  

 **************************************************************************

 **************************************************************************

                    xk=(   0.00000,   0.90000,   0.00000  )

     Band symmetry, C_2v (mm2)  point group:

     e(  1 -  1) =     -8.17071  eV     1   --> A_1  D_1  S_1  
     e(  2 -  3) =     -8.01363  eV     2   --> B_1  D_3  S_3  
     e(  2 -  3) =     -8.01363  eV     2   --> B_2  D_4  S_4  
     e(  4 -  4) =     -8.00868  eV     1   --> A_1  D_1  S_1  
     e(  5 -  5) =     -7.97000  eV     1   --> A_2  D_2  S_2  
     e(  6 -  6) =     -3.62642  eV     1   --> A_1  D_1  S_1  
     e(  7 -  7) =      0.06702  eV     1   --> A_1  D_1  S_1  
     e(  8 -  9) =      4.08393  eV     2   --> B_1  D_3  S_3  
     e(  8 -  9) =      4.08393  eV     2   --> B_2  D_4  S_4  
     e( 10 - 10) =      8.13710  eV     1   --> A_1  D_1  S_1  
     e( 11 - 11) =      8.51821  eV     1   --> A_1  D_1  S_1  
     e( 12 - 13) =     16.61787  eV     2   --> B_1  D_3  S_3  
     e( 12 - 13) =     16.61787  eV     2   --> B_2  D_4  S_4  

 **************************************************************************

 **************************************************************************

                    xk=(   0.00000,   0.95000,   0.00000  )

     Band symmetry, C_2v (mm2)  point group:

     e(  1 -  1) =     -8.17224  eV     1   --> A_1  D_1  S_1  
     e(  2 -  3) =     -8.01266  eV     2   --> B_1  D_3  S_3  
     e(  2 -  3) =     -8.01266  eV     2   --> B_2  D_4  S_4  
     e(  4 -  4) =     -8.00917  eV     1   --> A_1  D_1  S_1  
     e(  5 -  5) =     -7.96972  eV     1   --> A_2  D_2  S_2  
     e(  6 -  6) =     -3.53620  eV     1   --> A_1  D_1  S_1  
     e(  7 -  7) =     -0.05862  eV     1   --> A_1  D_1  S_1  
     e(  8 -  9) =      4.05291  eV     2   --> B_1  D_3  S_3  
     e(  8 -  9) =      4.05291  eV     2   --> B_2  D_4  S_4  
     e( 10 - 10) =      8.16333  eV     1   --> A_1  D_1  S_1  
     e( 11 - 11) =      8.41335  eV     1   --> A_1  D_1  S_1  
     e( 12 - 13) =     16.84954  eV     2   --> B_1  D_3  S_3  
     e( 12 - 13) =     16.84954  eV     2   --> B_2  D_4  S_4  

 **************************************************************************

 **************************************************************************

                    xk=(   0.00000,   1.00000,   0.00000  )

     point group D_2d (-42m)
     there are  5 classes
     the character table:

       E     2S4   C2    2C2'  2s_d 
A_1    1.00  1.00  1.00  1.00  1.00
A_2    1.00  1.00  1.00 -1.00 -1.00
B_1    1.00 -1.00  1.00  1.00 -1.00
B_2    1.00 -1.00  1.00 -1.00  1.00
E      2.00  0.00 -2.00  0.00  0.00

     the symmetry operations in each class and the name of the first element:

     E        1
                                                                 
     2S4      7    8
                                                                 
     C2       3
                                                                 
     2C2'     2    4
                                                                 
     2s_d     5    6
                                                                 

     Band symmetry, D_2d (-42m) point group:

     e(  1 -  1) =     -8.17277  eV     1   --> B_2  X_3  W_2  
     e(  2 -  3) =     -8.01233  eV     2   --> E    X_5  W_3  
     e(  4 -  4) =     -8.00934  eV     1   --> A_1  X_1  W_1  
     e(  5 -  5) =     -7.96963  eV     1   --> B_1  X_2  W_1' 
     e(  6 -  6) =     -3.50450  eV     1   --> B_2  X_3  W_2  
     e(  7 -  7) =     -0.10215  eV     1   --> A_1  X_1  W_1  
     e(  8 -  9) =      4.04255  eV     2   --> E    X_5  W_3  
     e( 10 - 10) =      8.18180  eV     1   --> B_2  X_3  W_2  
     e( 11 - 11) =      8.36849  eV     1   --> A_1  X_1  W_1  
     e( 12 - 13) =     16.93521  eV     2   --> E    X_5  W_3  

 **************************************************************************

 **************************************************************************

                    xk=(   0.00000,   0.98750,   0.03750  )

     point group C_1 (1)    
     there are  1 classes
     the character table:

       E    
A      1.00

     the symmetry operations in each class and the name of the first element:

     E        1
                                                                 

     Band symmetry, C_1 (1)     point group:

     e(  1 -  1) =     -8.17260  eV     1   --> A              
     e(  2 -  3) =     -8.01261  eV     2   -->   2 A              
     e(  4 -  4) =     -8.00898  eV     1   --> A              
     e(  5 -  5) =     -7.96974  eV     1   --> A              
     e(  6 -  6) =     -3.50571  eV     1   --> A              
     e(  7 -  7) =     -0.09716  eV     1   --> A              
     e(  8 -  8) =      4.02871  eV     1   --> A              
     e(  9 -  9) =      4.03147  eV     1   --> A              
     e( 10 - 10) =      8.20856  eV     1   --> A              
     e( 11 - 11) =      8.40037  eV     1   --> A              
     e( 12 - 12) =     16.86042  eV     1   --> A              
     e( 13 - 13) =     16.87937  eV     1   --> A              

 **************************************************************************

 **************************************************************************

                    xk=(   0.00000,   0.97500,   0.07500  )

     Band symmetry, C_1 (1)     point group:

     e(  1 -  1) =     -8.17206  eV     1   --> A              
     e(  2 -  2) =     -8.01339  eV     1   --> A              
     e(  3 -  3) =     -8.01324  eV     1   --> A              
     e(  4 -  4) =     -8.00810  eV     1   --> A              
     e(  5 -  5) =     -7.97004  eV     1   --> A              
     e(  6 -  6) =     -3.50925  eV     1   --> A              
     e(  7 -  7) =     -0.08251  eV     1   --> A              
     e(  8 -  8) =      3.98812  eV     1   --> A              
     e(  9 -  9) =      4.00015  eV     1   --> A              
     e( 10 - 10) =      8.28858  eV     1   --> A              
     e( 11 - 11) =      8.49370  eV     1   --> A              
     e( 12 - 12) =     16.61922  eV     1   --> A              
     e( 13 - 13) =     16.74293  eV     1   --> A              

 **************************************************************************

 **************************************************************************

                    xk=(   0.00000,   0.96250,   0.11250  )

     Band symmetry, C_1 (1)     point group:

     e(  1 -  1) =     -8.17115  eV     1   --> A              
     e(  2 -  2) =     -8.01462  eV     1   --> A              
     e(  3 -  3) =     -8.01393  eV     1   --> A              
     e(  4 -  4) =     -8.00695  eV     1   --> A              
     e(  5 -  5) =     -7.97049  eV     1   --> A              
     e(  6 -  6) =     -3.51488  eV     1   --> A              
     e(  7 -  7) =     -0.05910  eV     1   --> A              
     e(  8 -  8) =      3.92358  eV     1   --> A              
     e(  9 -  9) =      3.95368  eV     1   --> A              
     e( 10 - 10) =      8.42023  eV     1   --> A              
     e( 11 - 11) =      8.64254  eV     1   --> A              
     e( 12 - 12) =     16.23590  eV     1   --> A              
     e( 13 - 13) =     16.55524  eV     1   --> A              

 **************************************************************************

 **************************************************************************

                    xk=(   0.00000,   0.95000,   0.15000  )

     Band symmetry, C_1 (1)     point group:

     e(  1 -  1) =     -8.16992  eV     1   --> A              
     e(  2 -  2) =     -8.01627  eV     1   --> A              
     e(  3 -  3) =     -8.01462  eV     1   --> A              
     e(  4 -  4) =     -8.00564  eV     1   --> A              
     e(  5 -  5) =     -7.97110  eV     1   --> A              
     e(  6 -  6) =     -3.52227  eV     1   --> A              
     e(  7 -  7) =     -0.02840  eV     1   --> A              
     e(  8 -  8) =      3.83947  eV     1   --> A              
     e(  9 -  9) =      3.89876  eV     1   --> A              
     e( 10 - 10) =      8.60014  eV     1   --> A              
     e( 11 - 11) =      8.83940  eV     1   --> A              
     e( 12 - 12) =     15.76180  eV     1   --> A              
     e( 13 - 13) =     16.33066  eV     1   --> A              

 **************************************************************************

 **************************************************************************

                    xk=(   0.00000,   0.93750,   0.18750  )

     Band symmetry, C_1 (1)     point group:

     e(  1 -  1) =     -8.16839  eV     1   --> A              
     e(  2 -  2) =     -8.01824  eV     1   --> A              
     e(  3 -  3) =     -8.01528  eV     1   --> A              
     e(  4 -  4) =     -8.00421  eV     1   --> A              
     e(  5 -  5) =     -7.97186  eV     1   --> A              
     e(  6 -  6) =     -3.53095  eV     1   --> A              
     e(  7 -  7) =      0.00761  eV     1   --> A              
     e(  8 -  8) =      3.74101  eV     1   --> A              
     e(  9 -  9) =      3.84256  eV     1   --> A              
     e( 10 - 10) =      8.82369  eV     1   --> A              
     e( 11 - 11) =      9.07694  eV     1   --> A              
     e( 12 - 12) =     15.23750  eV     1   --> A              
     e( 13 - 13) =     16.07773  eV     1   --> A              

 **************************************************************************

 **************************************************************************

                    xk=(   0.00000,   0.92500,   0.22500  )

     Band symmetry, C_1 (1)     point group:

     e(  1 -  1) =     -8.16668  eV     1   --> A              
     e(  2 -  2) =     -8.02048  eV     1   --> A              
     e(  3 -  3) =     -8.01592  eV     1   --> A              
     e(  4 -  4) =     -8.00268  eV     1   --> A              
     e(  5 -  5) =     -7.97274  eV     1   --> A              
     e(  6 -  6) =     -3.54044  eV     1   --> A              
     e(  7 -  7) =      0.04655  eV     1   --> A              
     e(  8 -  8) =      3.63350  eV     1   --> A              
     e(  9 -  9) =      3.79182  eV     1   --> A              
     e( 10 - 10) =      9.08562  eV     1   --> A              
     e( 11 - 11) =      9.34824  eV     1   --> A              
     e( 12 - 12) =     14.68860  eV     1   --> A              
     e( 13 - 13) =     15.80303  eV     1   --> A              

 **************************************************************************

 **************************************************************************

                    xk=(   0.00000,   0.91250,   0.26250  )

     Band symmetry, C_1 (1)     point group:

     e(  1 -  1) =     -8.16486  eV     1   --> A              
     e(  2 -  2) =     -8.02284  eV     1   --> A              
     e(  3 -  3) =     -8.01652  eV     1   --> A              
     e(  4 -  4) =     -8.00110  eV     1   --> A              
     e(  5 -  5) =     -7.97372  eV     1   --> A              
     e(  6 -  6) =     -3.55019  eV     1   --> A              
     e(  7 -  7) =      0.08581  eV     1   --> A              
     e(  8 -  8) =      3.52183  eV     1   --> A              
     e(  9 -  9) =      3.75258  eV     1   --> A              
     e( 10 - 10) =      9.38074  eV     1   --> A              
     e( 11 - 11) =      9.64699  eV     1   --> A              
     e( 12 - 12) =     14.13160  eV     1   --> A              
     e( 13 - 13) =     15.51270  eV     1   --> A              

 **************************************************************************

 **************************************************************************

                    xk=(   0.00000,   0.90000,   0.30000  )

     Band symmetry, C_1 (1)     point group:

     e(  1 -  1) =     -8.16302  eV     1   --> A              
     e(  2 -  2) =     -8.02521  eV     1   --> A              
     e(  3 -  3) =     -8.01709  eV     1   --> A              
     e(  4 -  4) =     -7.99950  eV     1   --> A              
     e(  5 -  5) =     -7.97476  eV     1   --> A              
     e(  6 -  6) =     -3.55970  eV     1   --> A              
     e(  7 -  7) =      0.12272  eV     1   --> A              
     e(  8 -  8) =      3.41017  eV     1   --> A              
     e(  9 -  9) =      3.72984  eV     1   --> A              
     e( 10 - 10) =      9.70385  eV     1   --> A              
     e( 11 - 11) =      9.96700  eV     1   --> A              
     e( 12 - 12) =     13.57800  eV     1   --> A              
     e( 13 - 13) =     15.21268  eV     1   --> A              

 **************************************************************************

 **************************************************************************

                    xk=(   0.00000,   0.88750,   0.33750  )

     Band symmetry, C_1 (1)     point group:

     e(  1 -  1) =     -8.16125  eV     1   --> A              
     e(  2 -  2) =     -8.02743  eV     1   --> A              
     e(  3 -  3) =     -8.01763  eV     1   --> A              
     e(  4 -  4) =     -7.99790  eV     1   --> A              
     e(  5 -  5) =     -7.97582  eV     1   --> A              
     e(  6 -  6) =     -3.56848  eV     1   --> A              
     e(  7 -  7) =      0.15479  eV     1   --> A              
     e(  8 -  8) =      3.30203  eV     1   --> A              
     e(  9 -  9) =      3.72741  eV     1   --> A              
     e( 10 - 10) =     10.04902  eV     1   --> A              
     e( 11 - 11) =     10.30138  eV     1   --> A              
     e( 12 - 12) =     13.03891  eV     1   --> A              
     e( 13 - 13) =     14.90892  eV     1   --> A              

 **************************************************************************

 **************************************************************************

                    xk=(   0.00000,   0.87500,   0.37500  )

     Band symmetry, C_1 (1)     point group:

     e(  1 -  1) =     -8.15966  eV     1   --> A              
     e(  2 -  2) =     -8.02939  eV     1   --> A              
     e(  3 -  3) =     -8.01814  eV     1   --> A              
     e(  4 -  4) =     -7.99639  eV     1   --> A              
     e(  5 -  5) =     -7.97688  eV     1   --> A              
     e(  6 -  6) =     -3.57609  eV     1   --> A              
     e(  7 -  7) =      0.18004  eV     1   --> A              
     e(  8 -  8) =      3.20023  eV     1   --> A              
     e(  9 -  9) =      3.74772  eV     1   --> A              
     e( 10 - 10) =     10.40541  eV     1   --> A              
     e( 11 - 11) =     10.64085  eV     1   --> A              
     e( 12 - 12) =     12.53065  eV     1   --> A              
     e( 13 - 13) =     14.60746  eV     1   --> A              

 **************************************************************************

 **************************************************************************

                    xk=(   0.00000,   0.86250,   0.41250  )

     Band symmetry, C_1 (1)     point group:

     e(  1 -  1) =     -8.15834  eV     1   --> A              
     e(  2 -  2) =     -8.03095  eV     1   --> A              
     e(  3 -  3) =     -8.01863  eV     1   --> A              
     e(  4 -  4) =     -7.99504  eV     1   --> A              
     e(  5 -  5) =     -7.97785  eV     1   --> A              
     e(  6 -  6) =     -3.58217  eV     1   --> A              
     e(  7 -  7) =      0.19713  eV     1   --> A              
     e(  8 -  8) =      3.10705  eV     1   --> A              
     e(  9 -  9) =      3.79163  eV     1   --> A              
     e( 10 - 10) =     10.73396  eV     1   --> A              
     e( 11 - 11) =     10.97586  eV     1   --> A              
     e( 12 - 12) =     12.09652  eV     1   --> A              
     e( 13 - 13) =     14.31569  eV     1   --> A              

 **************************************************************************

 **************************************************************************

                    xk=(   0.00000,   0.85000,   0.45000  )

     Band symmetry, C_1 (1)     point group:

     e(  1 -  1) =     -8.15739  eV     1   --> A              
     e(  2 -  2) =     -8.03202  eV     1   --> A              
     e(  3 -  3) =     -8.01907  eV     1   --> A              
     e(  4 -  4) =     -7.99394  eV     1   --> A              
     e(  5 -  5) =     -7.97864  eV     1   --> A              
     e(  6 -  6) =     -3.58641  eV     1   --> A              
     e(  7 -  7) =      0.20558  eV     1   --> A              
     e(  8 -  8) =      3.02431  eV     1   --> A              
     e(  9 -  9) =      3.85827  eV     1   --> A              
     e( 10 - 10) =     10.86190  eV     1   --> A              
     e( 11 - 11) =     11.32678  eV     1   --> A              
     e( 12 - 12) =     11.87947  eV     1   --> A              
     e( 13 - 13) =     14.04438  eV     1   --> A              

 **************************************************************************

 **************************************************************************

                    xk=(   0.00000,   0.83750,   0.48750  )

     Band symmetry, C_1 (1)     point group:

     e(  1 -  1) =     -8.15685  eV     1   --> A              
     e(  2 -  2) =     -8.03256  eV     1   --> A              
     e(  3 -  3) =     -8.01949  eV     1   --> A              
     e(  4 -  4) =     -7.99322  eV     1   --> A              
     e(  5 -  5) =     -7.97918  eV     1   --> A              
     e(  6 -  6) =     -3.58859  eV     1   --> A              
     e(  7 -  7) =      0.20566  eV     1   --> A              
     e(  8 -  8) =      2.95347  eV     1   --> A              
     e(  9 -  9) =      3.94490  eV     1   --> A              
     e( 10 - 10) =     10.63340  eV     1   --> A              
     e( 11 - 11) =     11.71226  eV     1   --> A              
     e( 12 - 12) =     11.99805  eV     1   --> A              
     e( 13 - 13) =     13.81316  eV     1   --> A              

 **************************************************************************

 **************************************************************************

                    xk=(   0.00000,   0.82500,   0.52500  )

     Band symmetry, C_1 (1)     point group:

     e(  1 -  1) =     -8.15671  eV     1   --> A              
     e(  2 -  2) =     -8.03254  eV     1   --> A              
     e(  3 -  3) =     -8.01986  eV     1   --> A              
     e(  4 -  4) =     -7.99295  eV     1   --> A              
     e(  5 -  5) =     -7.97937  eV     1   --> A              
     e(  6 -  6) =     -3.58851  eV     1   --> A              
     e(  7 -  7) =      0.19833  eV     1   --> A              
     e(  8 -  8) =      2.89566  eV     1   --> A              
     e(  9 -  9) =      4.04687  eV     1   --> A              
     e( 10 - 10) =     10.25815  eV     1   --> A              
     e( 11 - 11) =     12.05364  eV     1   --> A              
     e( 12 - 12) =     12.28209  eV     1   --> A              
     e( 13 - 13) =     13.66194  eV     1   --> A              

 **************************************************************************

 **************************************************************************

                    xk=(   0.00000,   0.81250,   0.56250  )

     Band symmetry, C_1 (1)     point group:

     e(  1 -  1) =     -8.15695  eV     1   --> A              
     e(  2 -  2) =     -8.03202  eV     1   --> A              
     e(  3 -  3) =     -8.02012  eV     1   --> A              
     e(  4 -  4) =     -7.99314  eV     1   --> A              
     e(  5 -  5) =     -7.97920  eV     1   --> A              
     e(  6 -  6) =     -3.58609  eV     1   --> A              
     e(  7 -  7) =      0.18499  eV     1   --> A              
     e(  8 -  8) =      2.85178  eV     1   --> A              
     e(  9 -  9) =      4.15747  eV     1   --> A              
     e( 10 - 10) =      9.86913  eV     1   --> A              
     e( 11 - 11) =     12.20323  eV     1   --> A              
     e( 12 - 12) =     12.68346  eV     1   --> A              
     e( 13 - 13) =     13.65357  eV     1   --> A              

 **************************************************************************

 **************************************************************************

                    xk=(   0.00000,   0.80000,   0.60000  )

     Band symmetry, C_1 (1)     point group:

     e(  1 -  1) =     -8.15752  eV     1   --> A              
     e(  2 -  2) =     -8.03108  eV     1   --> A              
     e(  3 -  3) =     -8.02029  eV     1   --> A              
     e(  4 -  4) =     -7.99373  eV     1   --> A              
     e(  5 -  5) =     -7.97875  eV     1   --> A              
     e(  6 -  6) =     -3.58131  eV     1   --> A              
     e(  7 -  7) =      0.16726  eV     1   --> A              
     e(  8 -  8) =      2.82248  eV     1   --> A              
     e(  9 -  9) =      4.26773  eV     1   --> A              
     e( 10 - 10) =      9.50686  eV     1   --> A              
     e( 11 - 11) =     12.16425  eV     1   --> A              
     e( 12 - 12) =     13.13442  eV     1   --> A              
     e( 13 - 13) =     13.81021  eV     1   --> A              

 **************************************************************************

 **************************************************************************

                    xk=(   0.00000,   0.78750,   0.63750  )

     Band symmetry, C_1 (1)     point group:

     e(  1 -  1) =     -8.15831  eV     1   --> A              
     e(  2 -  2) =     -8.02984  eV     1   --> A              
     e(  3 -  3) =     -8.02032  eV     1   --> A              
     e(  4 -  4) =     -7.99456  eV     1   --> A              
     e(  5 -  5) =     -7.97812  eV     1   --> A              
     e(  6 -  6) =     -3.57419  eV     1   --> A              
     e(  7 -  7) =      0.14678  eV     1   --> A              
     e(  8 -  8) =      2.80825  eV     1   --> A              
     e(  9 -  9) =      4.36639  eV     1   --> A              
     e( 10 - 10) =      9.19156  eV     1   --> A              
     e( 11 - 11) =     12.01225  eV     1   --> A              
     e( 12 - 12) =     13.60016  eV     1   --> A              
     e( 13 - 13) =     14.06547  eV     1   --> A              

 **************************************************************************

 **************************************************************************

                    xk=(   0.00000,   0.77500,   0.67500  )

     Band symmetry, C_1 (1)     point group:

     e(  1 -  1) =     -8.15927  eV     1   --> A              
     e(  2 -  2) =     -8.02852  eV     1   --> A              
     e(  3 -  3) =     -8.02018  eV     1   --> A              
     e(  4 -  4) =     -7.99553  eV     1   --> A              
     e(  5 -  5) =     -7.97742  eV     1   --> A              
     e(  6 -  6) =     -3.56487  eV     1   --> A              
     e(  7 -  7) =      0.12510  eV     1   --> A              
     e(  8 -  8) =      2.80934  eV     1   --> A              
     e(  9 -  9) =      4.44022  eV     1   --> A              
     e( 10 - 10) =      8.93936  eV     1   --> A              
     e( 11 - 11) =     11.81032  eV     1   --> A              
     e( 12 - 12) =     14.06596  eV     1   --> A              
     e( 13 - 13) =     14.33976  eV     1   --> A              

 **************************************************************************

 **************************************************************************

                    xk=(   0.00000,   0.76250,   0.71250  )

     Band symmetry, C_1 (1)     point group:

     e(  1 -  1) =     -8.16028  eV     1   --> A              
     e(  2 -  2) =     -8.02730  eV     1   --> A              
     e(  3 -  3) =     -8.01983  eV     1   --> A              
     e(  4 -  4) =     -7.99653  eV     1   --> A              
     e(  5 -  5) =     -7.97677  eV     1   --> A              
     e(  6 -  6) =     -3.55355  eV     1   --> A              
     e(  7 -  7) =      0.10356  eV     1   --> A              
     e(  8 -  8) =      2.82590  eV     1   --> A              
     e(  9 -  9) =      4.47565  eV     1   --> A              
     e( 10 - 10) =      8.76494  eV     1   --> A              
     e( 11 - 11) =     11.59046  eV     1   --> A              
     e( 12 - 12) =     14.49913  eV     1   --> A              
     e( 13 - 13) =     14.58004  eV     1   --> A              

 **************************************************************************

 **************************************************************************

                    xk=(   0.00000,   0.75000,   0.75000  )

     point group C_s (m)    
     there are  2 classes
     the character table:

       E     s    
A'     1.00  1.00
A''    1.00 -1.00

     the symmetry operations in each class and the name of the first element:

     E        1
                                                                 
     s        2
                                                                 

     Band symmetry, C_s (m)     point group:

     e(  1 -  1) =     -8.16127  eV     1   --> A'             
     e(  2 -  2) =     -8.02630  eV     1   --> A'             
     e(  3 -  3) =     -8.01927  eV     1   --> A''            
     e(  4 -  4) =     -7.99747  eV     1   --> A'             
     e(  5 -  5) =     -7.97621  eV     1   --> A''            
     e(  6 -  6) =     -3.54056  eV     1   --> A'             
     e(  7 -  7) =      0.08333  eV     1   --> A'             
     e(  8 -  8) =      2.85788  eV     1   --> A'             
     e(  9 -  9) =      4.46198  eV     1   --> A''            
     e( 10 - 10) =      8.67957  eV     1   --> A'             
     e( 11 - 11) =     11.36718  eV     1   --> A'             
     e( 12 - 12) =     14.71130  eV     1   --> A'             
     e( 13 - 13) =     14.81571  eV     1   --> A''            

 **************************************************************************

 **************************************************************************

                    xk=(   0.00000,   0.71250,   0.71250  )

     Band symmetry, C_s (m)     point group:

     e(  1 -  1) =     -8.15836  eV     1   --> A'             
     e(  2 -  2) =     -8.02879  eV     1   --> A'             
     e(  3 -  3) =     -8.02136  eV     1   --> A''            
     e(  4 -  4) =     -7.99482  eV     1   --> A'             
     e(  5 -  5) =     -7.97779  eV     1   --> A''            
     e(  6 -  6) =     -3.59365  eV     1   --> A'             
     e(  7 -  7) =      0.14913  eV     1   --> A'             
     e(  8 -  8) =      2.77009  eV     1   --> A'             
     e(  9 -  9) =      4.59000  eV     1   --> A''            
     e( 10 - 10) =      8.80101  eV     1   --> A'             
     e( 11 - 11) =     12.01084  eV     1   --> A'             
     e( 12 - 12) =     14.40577  eV     1   --> A''            
     e( 13 - 13) =     14.45876  eV     1   --> A'             

 **************************************************************************

 **************************************************************************

                    xk=(   0.00000,   0.67500,   0.67500  )

     Band symmetry, C_s (m)     point group:

     e(  1 -  1) =     -8.15532  eV     1   --> A'             
     e(  2 -  2) =     -8.03106  eV     1   --> A'             
     e(  3 -  3) =     -8.02366  eV     1   --> A''            
     e(  4 -  4) =     -7.99219  eV     1   --> A'             
     e(  5 -  5) =     -7.97938  eV     1   --> A''            
     e(  6 -  6) =     -3.67314  eV     1   --> A'             
     e(  7 -  7) =      0.23541  eV     1   --> A'             
     e(  8 -  8) =      2.74580  eV     1   --> A'             
     e(  9 -  9) =      4.73135  eV     1   --> A''            
     e( 10 - 10) =      8.93077  eV     1   --> A'             
     e( 11 - 11) =     12.52271  eV     1   --> A'             
     e( 12 - 12) =     14.00833  eV     1   --> A''            
     e( 13 - 13) =     14.35406  eV     1   --> A'             

 **************************************************************************

 **************************************************************************

                    xk=(   0.00000,   0.63750,   0.63750  )

     Band symmetry, C_s (m)     point group:

     e(  1 -  1) =     -8.15218  eV     1   --> A'             
     e(  2 -  2) =     -8.03311  eV     1   --> A'             
     e(  3 -  3) =     -8.02620  eV     1   --> A''            
     e(  4 -  4) =     -7.98971  eV     1   --> A'             
     e(  5 -  5) =     -7.98095  eV     1   --> A''            
     e(  6 -  6) =     -3.78066  eV     1   --> A'             
     e(  7 -  7) =      0.34911  eV     1   --> A'             
     e(  8 -  8) =      2.78314  eV     1   --> A'             
     e(  9 -  9) =      4.88405  eV     1   --> A''            
     e( 10 - 10) =      9.06406  eV     1   --> A'             
     e( 11 - 11) =     12.74377  eV     1   --> A'             
     e( 12 - 12) =     13.62681  eV     1   --> A''            
     e( 13 - 13) =     13.99849  eV     1   --> A'             

 **************************************************************************

 **************************************************************************

                    xk=(   0.00000,   0.60000,   0.60000  )

     Band symmetry, C_s (m)     point group:

     e(  1 -  1) =     -8.14879  eV     1   --> A'             
     e(  2 -  2) =     -8.03485  eV     1   --> A'             
     e(  3 -  3) =     -8.02889  eV     1   --> A''            
     e(  4 -  4) =     -7.98742  eV     1   --> A'             
     e(  5 -  5) =     -7.98236  eV     1   --> A''            
     e(  6 -  6) =     -3.91486  eV     1   --> A'             
     e(  7 -  7) =      0.49621  eV     1   --> A'             
     e(  8 -  8) =      2.87698  eV     1   --> A'             
     e(  9 -  9) =      5.04587  eV     1   --> A''            
     e( 10 - 10) =      9.19440  eV     1   --> A'             
     e( 11 - 11) =     12.70720  eV     1   --> A'             
     e( 12 - 12) =     13.26386  eV     1   --> A''            
     e( 13 - 13) =     13.57637  eV     1   --> A'             

 **************************************************************************

 **************************************************************************

                    xk=(   0.00000,   0.56250,   0.56250  )

     Band symmetry, C_s (m)     point group:

     e(  1 -  1) =     -8.14511  eV     1   --> A'             
     e(  2 -  2) =     -8.03638  eV     1   --> A'             
     e(  3 -  3) =     -8.03169  eV     1   --> A''            
     e(  4 -  4) =     -7.98544  eV     1   --> A'             
     e(  5 -  5) =     -7.98363  eV     1   --> A''            
     e(  6 -  6) =     -4.07183  eV     1   --> A'             
     e(  7 -  7) =      0.68051  eV     1   --> A'             
     e(  8 -  8) =      3.02074  eV     1   --> A'             
     e(  9 -  9) =      5.21418  eV     1   --> A''            
     e( 10 - 10) =      9.31312  eV     1   --> A'             
     e( 11 - 11) =     12.57710  eV     1   --> A'             
     e( 12 - 12) =     12.92117  eV     1   --> A''            
     e( 13 - 13) =     13.17620  eV     1   --> A'             

 **************************************************************************

 **************************************************************************

                    xk=(   0.00000,   0.52500,   0.52500  )

     Band symmetry, C_s (m)     point group:

     e(  1 -  1) =     -8.14100  eV     1   --> A'             
     e(  2 -  2) =     -8.03776  eV     1   --> A'             
     e(  3 -  3) =     -8.03457  eV     1   --> A''            
     e(  4 -  4) =     -7.98472  eV     1   --> A''            
     e(  5 -  5) =     -7.98384  eV     1   --> A'             
     e(  6 -  6) =     -4.24600  eV     1   --> A'             
     e(  7 -  7) =      0.90349  eV     1   --> A'             
     e(  8 -  8) =      3.20770  eV     1   --> A'             
     e(  9 -  9) =      5.38602  eV     1   --> A''            
     e( 10 - 10) =      9.40983  eV     1   --> A'             
     e( 11 - 11) =     12.43741  eV     1   --> A'             
     e( 12 - 12) =     12.59990  eV     1   --> A''            
     e( 13 - 13) =     12.80835  eV     1   --> A'             

 **************************************************************************

 **************************************************************************

                    xk=(   0.00000,   0.48750,   0.48750  )

     Band symmetry, C_s (m)     point group:

     e(  1 -  1) =     -8.13638  eV     1   --> A'             
     e(  2 -  2) =     -8.03908  eV     1   --> A'             
     e(  3 -  3) =     -8.03749  eV     1   --> A''            
     e(  4 -  4) =     -7.98557  eV     1   --> A''            
     e(  5 -  5) =     -7.98264  eV     1   --> A'             
     e(  6 -  6) =     -4.43118  eV     1   --> A'             
     e(  7 -  7) =      1.16475  eV     1   --> A'             
     e(  8 -  8) =      3.43165  eV     1   --> A'             
     e(  9 -  9) =      5.55816  eV     1   --> A''            
     e( 10 - 10) =      9.47377  eV     1   --> A'             
     e( 11 - 11) =     12.28889  eV     1   --> A'             
     e( 12 - 12) =     12.30076  eV     1   --> A''            
     e( 13 - 13) =     12.50977  eV     1   --> A'             

 **************************************************************************

 **************************************************************************

                    xk=(   0.00000,   0.45000,   0.45000  )

     Band symmetry, C_s (m)     point group:

     e(  1 -  1) =     -8.13116  eV     1   --> A'             
     e(  2 -  3) =     -8.04043  eV     2   --> A'             
     e(  2 -  3) =     -8.04043  eV     2   --> A''            
     e(  4 -  4) =     -7.98621  eV     1   --> A''            
     e(  5 -  5) =     -7.98186  eV     1   --> A'             
     e(  6 -  6) =     -4.62135  eV     1   --> A'             
     e(  7 -  7) =      1.46283  eV     1   --> A'             
     e(  8 -  8) =      3.68697  eV     1   --> A'             
     e(  9 -  9) =      5.72717  eV     1   --> A''            
     e( 10 - 10) =      9.49692  eV     1   --> A'             
     e( 11 - 11) =     12.02426  eV     1   --> A''            
     e( 12 - 12) =     12.04440  eV     1   --> A'             
     e( 13 - 13) =     12.38160  eV     1   --> A'             

 **************************************************************************

 **************************************************************************

                    xk=(   0.00000,   0.41250,   0.41250  )

     Band symmetry, C_s (m)     point group:

     e(  1 -  1) =     -8.12534  eV     1   --> A'             
     e(  2 -  2) =     -8.04328  eV     1   --> A''            
     e(  3 -  3) =     -8.04193  eV     1   --> A'             
     e(  4 -  4) =     -7.98662  eV     1   --> A''            
     e(  5 -  5) =     -7.98147  eV     1   --> A'             
     e(  6 -  6) =     -4.81115  eV     1   --> A'             
     e(  7 -  7) =      1.79565  eV     1   --> A'             
     e(  8 -  8) =      3.96844  eV     1   --> A'             
     e(  9 -  9) =      5.88953  eV     1   --> A''            
     e( 10 - 10) =      9.47670  eV     1   --> A'             
     e( 11 - 11) =     11.76081  eV     1   --> A'             
     e( 12 - 12) =     11.77051  eV     1   --> A''            
     e( 13 - 13) =     12.36375  eV     1   --> A'             

 **************************************************************************

 **************************************************************************

                    xk=(   0.00000,   0.37500,   0.37500  )

     Band symmetry, C_s (m)     point group:

     e(  1 -  1) =     -8.11886  eV     1   --> A'             
     e(  2 -  2) =     -8.04606  eV     1   --> A''            
     e(  3 -  3) =     -8.04359  eV     1   --> A'             
     e(  4 -  4) =     -7.98677  eV     1   --> A''            
     e(  5 -  5) =     -7.98135  eV     1   --> A'             
     e(  6 -  6) =     -4.99599  eV     1   --> A'             
     e(  7 -  7) =      2.16101  eV     1   --> A'             
     e(  8 -  8) =      4.27097  eV     1   --> A'             
     e(  9 -  9) =      6.04190  eV     1   --> A''            
     e( 10 - 10) =      9.41704  eV     1   --> A'             
     e( 11 - 11) =     11.49316  eV     1   --> A'             
     e( 12 - 12) =     11.53963  eV     1   --> A''            
     e( 13 - 13) =     12.38257  eV     1   --> A'             

 **************************************************************************

 **************************************************************************

                    xk=(   0.00000,   0.33750,   0.33750  )

     Band symmetry, C_s (m)     point group:

     e(  1 -  1) =     -8.11188  eV     1   --> A'             
     e(  2 -  2) =     -8.04873  eV     1   --> A''            
     e(  3 -  3) =     -8.04552  eV     1   --> A'             
     e(  4 -  4) =     -7.98675  eV     1   --> A''            
     e(  5 -  5) =     -7.98149  eV     1   --> A'             
     e(  6 -  6) =     -5.17211  eV     1   --> A'             
     e(  7 -  7) =      2.55654  eV     1   --> A'             
     e(  8 -  8) =      4.58915  eV     1   --> A'             
     e(  9 -  9) =      6.18130  eV     1   --> A''            
     e( 10 - 10) =      9.32551  eV     1   --> A'             
     e( 11 - 11) =     11.25143  eV     1   --> A'             
     e( 12 - 12) =     11.33139  eV     1   --> A''            
     e( 13 - 13) =     12.39362  eV     1   --> A'             

 **************************************************************************

 **************************************************************************

                    xk=(   0.00000,   0.30000,   0.30000  )

     Band symmetry, C_s (m)     point group:

     e(  1 -  1) =     -8.10447  eV     1   --> A'             
     e(  2 -  2) =     -8.05124  eV     1   --> A''            
     e(  3 -  3) =     -8.04765  eV     1   --> A'             
     e(  4 -  4) =     -7.98656  eV     1   --> A''            
     e(  5 -  5) =     -7.98176  eV     1   --> A'             
     e(  6 -  6) =     -5.33641  eV     1   --> A'             
     e(  7 -  7) =      2.97997  eV     1   --> A'             
     e(  8 -  8) =      4.91697  eV     1   --> A'             
     e(  9 -  9) =      6.30543  eV     1   --> A''            
     e( 10 - 10) =      9.20963  eV     1   --> A'             
     e( 11 - 11) =     11.03923  eV     1   --> A'             
     e( 12 - 12) =     11.14564  eV     1   --> A''            
     e( 13 - 13) =     12.34870  eV     1   --> A'             

 **************************************************************************

 **************************************************************************

                    xk=(   0.00000,   0.26250,   0.26250  )

     Band symmetry, C_s (m)     point group:

     e(  1 -  1) =     -8.09690  eV     1   --> A'             
     e(  2 -  2) =     -8.05357  eV     1   --> A''            
     e(  3 -  3) =     -8.05002  eV     1   --> A'             
     e(  4 -  4) =     -7.98624  eV     1   --> A''            
     e(  5 -  5) =     -7.98216  eV     1   --> A'             
     e(  6 -  6) =     -5.48642  eV     1   --> A'             
     e(  7 -  7) =      3.42875  eV     1   --> A'             
     e(  8 -  8) =      5.24726  eV     1   --> A'             
     e(  9 -  9) =      6.41274  eV     1   --> A''            
     e( 10 - 10) =      9.07388  eV     1   --> A'             
     e( 11 - 11) =     10.85849  eV     1   --> A'             
     e( 12 - 12) =     10.98211  eV     1   --> A''            
     e( 13 - 13) =     12.20452  eV     1   --> A'             

 **************************************************************************

 **************************************************************************

                    xk=(   0.00000,   0.22500,   0.22500  )

     Band symmetry, C_s (m)     point group:

     e(  1 -  1) =     -8.08932  eV     1   --> A'             
     e(  2 -  2) =     -8.05567  eV     1   --> A''            
     e(  3 -  3) =     -8.05245  eV     1   --> A'             
     e(  4 -  4) =     -7.98584  eV     1   --> A''            
     e(  5 -  5) =     -7.98258  eV     1   --> A'             
     e(  6 -  6) =     -5.62013  eV     1   --> A'             
     e(  7 -  7) =      3.90029  eV     1   --> A'             
     e(  8 -  8) =      5.57146  eV     1   --> A'             
     e(  9 -  9) =      6.50273  eV     1   --> A''            
     e( 10 - 10) =      8.91808  eV     1   --> A'             
     e( 11 - 11) =     10.71119  eV     1   --> A'             
     e( 12 - 12) =     10.84065  eV     1   --> A''            
     e( 13 - 13) =     11.94837  eV     1   --> A'             

 **************************************************************************

 **************************************************************************

                    xk=(   0.00000,   0.18750,   0.18750  )

     Band symmetry, C_s (m)     point group:

     e(  1 -  1) =     -8.08205  eV     1   --> A'             
     e(  2 -  2) =     -8.05750  eV     1   --> A''            
     e(  3 -  3) =     -8.05486  eV     1   --> A'             
     e(  4 -  4) =     -7.98541  eV     1   --> A''            
     e(  5 -  5) =     -7.98296  eV     1   --> A'             
     e(  6 -  6) =     -5.73589  eV     1   --> A'             
     e(  7 -  7) =      4.39131  eV     1   --> A'             
     e(  8 -  8) =      5.87906  eV     1   --> A'             
     e(  9 -  9) =      6.57570  eV     1   --> A''            
     e( 10 - 10) =      8.73619  eV     1   --> A'             
     e( 11 - 11) =     10.59851  eV     1   --> A'             
     e( 12 - 12) =     10.72110  eV     1   --> A''            
     e( 13 - 13) =     11.61087  eV     1   --> A'             

 **************************************************************************

 **************************************************************************

                    xk=(   0.00000,   0.15000,   0.15000  )

     Band symmetry, C_s (m)     point group:

     e(  1 -  1) =     -8.07546  eV     1   --> A'             
     e(  2 -  2) =     -8.05905  eV     1   --> A''            
     e(  3 -  3) =     -8.05715  eV     1   --> A'             
     e(  4 -  4) =     -7.98498  eV     1   --> A''            
     e(  5 -  5) =     -7.98332  eV     1   --> A'             
     e(  6 -  6) =     -5.83240  eV     1   --> A'             
     e(  7 -  7) =      4.89760  eV     1   --> A'             
     e(  8 -  8) =      6.15768  eV     1   --> A'             
     e(  9 -  9) =      6.63257  eV     1   --> A''            
     e( 10 - 10) =      8.51618  eV     1   --> A'             
     e( 11 - 11) =     10.52041  eV     1   --> A'             
     e( 12 - 12) =     10.62332  eV     1   --> A''            
     e( 13 - 13) =     11.24795  eV     1   --> A'             

 **************************************************************************

 **************************************************************************

                    xk=(   0.00000,   0.11250,   0.11250  )

     Band symmetry, C_s (m)     point group:

     e(  1 -  1) =     -8.06983  eV     1   --> A'             
     e(  2 -  2) =     -8.06027  eV     1   --> A''            
     e(  3 -  3) =     -8.05912  eV     1   --> A'             
     e(  4 -  4) =     -7.98456  eV     1   --> A''            
     e(  5 -  5) =     -7.98361  eV     1   --> A'             
     e(  6 -  6) =     -5.90857  eV     1   --> A'             
     e(  7 -  7) =      5.41324  eV     1   --> A'             
     e(  8 -  8) =      6.39381  eV     1   --> A'             
     e(  9 -  9) =      6.67474  eV     1   --> A''            
     e( 10 - 10) =      8.24294  eV     1   --> A'             
     e( 11 - 11) =     10.47451  eV     1   --> A'             
     e( 12 - 12) =     10.54731  eV     1   --> A''            
     e( 13 - 13) =     10.91664  eV     1   --> A'             

 **************************************************************************

 **************************************************************************

                    xk=(   0.00000,   0.07500,   0.07500  )

     Band symmetry, C_s (m)     point group:

     e(  1 -  1) =     -8.06551  eV     1   --> A'             
     e(  2 -  2) =     -8.06116  eV     1   --> A''            
     e(  3 -  3) =     -8.06061  eV     1   --> A'             
     e(  4 -  4) =     -7.98424  eV     1   --> A''            
     e(  5 -  5) =     -7.98381  eV     1   --> A'             
     e(  6 -  6) =     -5.96358  eV     1   --> A'             
     e(  7 -  7) =      5.92827  eV     1   --> A'             
     e(  8 -  8) =      6.57414  eV     1   --> A'             
     e(  9 -  9) =      6.70359  eV     1   --> A''            
     e( 10 - 10) =      7.90732  eV     1   --> A'             
     e( 11 - 11) =     10.45437  eV     1   --> A'             
     e( 12 - 12) =     10.49300  eV     1   --> A''            
     e( 13 - 13) =     10.66033  eV     1   --> A'             

 **************************************************************************

 **************************************************************************

                    xk=(   0.00000,   0.03750,   0.03750  )

     Band symmetry, C_s (m)     point group:

     e(  1 -  1) =     -8.06280  eV     1   --> A'             
     e(  2 -  2) =     -8.06173  eV     1   --> A''            
     e(  3 -  3) =     -8.06157  eV     1   --> A'             
     e(  4 -  4) =     -7.98405  eV     1   --> A''            
     e(  5 -  5) =     -7.98395  eV     1   --> A'             
     e(  6 -  6) =     -5.99683  eV     1   --> A'             
     e(  7 -  7) =      6.41865  eV     1   --> A'             
     e(  8 -  8) =      6.68723  eV     1   --> A'             
     e(  9 -  9) =      6.72026  eV     1   --> A''            
     e( 10 - 10) =      7.52403  eV     1   --> A'             
     e( 11 - 11) =     10.44957  eV     1   --> A'             
     e( 12 - 12) =     10.46040  eV     1   --> A''            
     e( 13 - 13) =     10.50235  eV     1   --> A'             

 **************************************************************************

 **************************************************************************

                    xk=(   0.00000,   0.00000,   0.00000  )

     point group T_d (-43m) 
     there are  5 classes
     the character table:

       E     8C3   3C2   6S4   6s_d 
A_1    1.00  1.00  1.00  1.00  1.00
A_2    1.00  1.00  1.00 -1.00 -1.00
E      2.00 -1.00  2.00  0.00  0.00
T_1    3.00  0.00 -1.00  1.00 -1.00
T_2    3.00  0.00 -1.00 -1.00  1.00

     the symmetry operations in each class and the name of the first element:

     E        1
                                                                 
     8C3      5    7    8    6   12    9   10   11
                                                                 
     3C2      2    3    4
                                                                 
     6S4     15   16   20   19   23   24
                                                                 
     6s_d    13   14   17   18   21   22
                                                                 

     Band symmetry, T_d (-43m)  point group:

     e(  1 -  3) =     -8.06191  eV     3   --> T_2  G_15 P_4  
     e(  4 -  5) =     -7.98400  eV     2   --> E    G_12 P_3  
     e(  6 -  6) =     -6.00796  eV     1   --> A_1  G_1  P_1  
     e(  7 -  9) =      6.72573  eV     3   --> T_2  G_15 P_4  
     e( 10 - 10) =      7.25198  eV     1   --> A_1  G_1  P_1  
     e( 11 - 13) =     10.44953  eV     3   --> T_2  G_15 P_4  

 **************************************************************************

     BANDS        :     17.67s CPU     16.08s WALL


   This run was terminated on:   6:16:43   3Jan2025            

=------------------------------------------------------------------------------=
   JOB DONE.
=------------------------------------------------------------------------------=
