
     Program BANDS v.7.0 starts on  3Jan2025 at  6:26:39 

     This program is part of the open-source Quantum ESPRESSO suite
     for quantum simulation of materials; please cite
         "P. Giannozzi et al., J. Phys.:Condens. Matter 21 395502 (2009);
         "P. Giannozzi et al., J. Phys.:Condens. Matter 29 465901 (2017);
         "P. Giannozzi et al., J. Chem. Phys. 152 154105 (2020);
          URL http://www.quantum-espresso.org", 
     in publications or presentations arising from this work. More details at
     http://www.quantum-espresso.org/quote

     Parallel version (MPI & OpenMP), running on       2 processor cores
     Number of MPI processes:                 1
     Threads/MPI process:                     2

     MPI processes distributed on     1 nodes
     177 MiB available memory on the printing compute node when the environment starts


     Reading xml data from directory:

     ./outputs/gaas.save/
     Message from routine volume:
     axis vectors are left-handed
     file Ga.rel-pbe-dn-kjpaw_psl.1.0.0.UPF: wavefunction(s)  4S renormalized

     IMPORTANT: XC functional enforced from input :
     Exchange-correlation= PBE
                           (   1   4   3   4   0   0   0)
     Any further DFT definition will be discarded
     Please, verify this is what you really want


     G-vector sticks info
     --------------------
     sticks:   dense  smooth     PW     G-vecs:    dense   smooth      PW
     Sum         769     769    241                14361    14361    2397

     Using Slab Decomposition


     Check: negative core charge=   -0.000002
     Reading collected, re-writing distributed wavefunctions
     high-symmetry point:  0.5000 0.5000 0.5000   x coordinate   0.0000
     high-symmetry point:  0.0000 0.0000 0.0000   x coordinate   0.8660
     high-symmetry point:  0.0000 1.0000 0.0000   x coordinate   1.8660
     high-symmetry point:  0.0000 0.7500 0.7500   x coordinate   2.6566
     high-symmetry point:  0.0000 0.0000 0.0000   x coordinate   3.7173

     Plottable bands (eV) written to file GaAs_bands_w_soc.dat.gnu
     Bands written to file GaAs_bands_w_soc.dat

 **************************************************************************

                    xk=(   0.50000,   0.50000,   0.50000  )

     double point group C_3v (3m)  
     there are  6 classes and  3 irreducible representations
     the character table:

       E     -E    2C3   -2C3  3s_v  -3s_v
                                          
G_4    2.00 -2.00  1.00 -1.00  0.00  0.00
G_5    1.00 -1.00 -1.00  1.00  0.00  0.00
G_6    1.00 -1.00 -1.00  1.00  0.00  0.00

     imaginary part

       E     -E    2C3   -2C3  3s_v  -3s_v
                                          
G_4    0.00  0.00  0.00  0.00  0.00  0.00
G_5    0.00  0.00  0.00  0.00  1.00 -1.00
G_6    0.00  0.00  0.00  0.00 -1.00  1.00

     the symmetry operations in each class and the name of the first element:

     E             1
                                                                 
     -E           -1
                                                                 
     2C3           2    3
                                                                 
     -2C3         -2   -3
                                                                 
     3s_v          4    5   -6
                                                                 
     -3s_v         6   -4   -5
                                                                 

     Band symmetry, C_3v (3m)   double point group:

     e(  1 -  2) =     -8.32567  eV     2   --> G_4   L_6      
     e(  3 -  4) =     -8.29697  eV     2   --> G_5   L_4      
     e(  3 -  4) =     -8.29697  eV     2   --> G_6   L_5      
     e(  5 -  6) =     -7.88683  eV     2   --> G_4   L_6      
     e(  7 -  8) =     -7.84630  eV     2   --> G_4   L_6      
     e(  9 - 10) =     -7.80456  eV     2   --> G_5   L_4      
     e(  9 - 10) =     -7.80456  eV     2   --> G_6   L_5      
     e( 11 - 12) =     -4.23957  eV     2   --> G_4   L_6      
     e( 13 - 14) =      0.07857  eV     2   --> G_4   L_6      
     e( 15 - 16) =      5.47724  eV     2   --> G_4   L_6      
     e( 17 - 18) =      5.68382  eV     2   --> G_5   L_4      
     e( 17 - 18) =      5.68382  eV     2   --> G_6   L_5      
     e( 19 - 20) =      7.72340  eV     2   --> G_4   L_6      
     e( 21 - 22) =     11.31327  eV     2   --> G_4   L_6      
     e( 23 - 24) =     11.40574  eV     2   --> G_5   L_4      
     e( 23 - 24) =     11.40574  eV     2   --> G_6   L_5      
     e( 25 - 26) =     14.54081  eV     2   --> G_4   L_6      

 **************************************************************************

 **************************************************************************

                    xk=(   0.47500,   0.47500,   0.47500  )

     Band symmetry, C_3v (3m)   double point group:

     e(  1 -  2) =     -8.32555  eV     2   --> G_4   L_6      
     e(  3 -  3) =     -8.29751  eV     1   --> G_5   L_4      
     e(  4 -  4) =     -8.29657  eV     1   --> G_6   L_5      
     e(  5 -  6) =     -7.88686  eV     2   --> G_4   L_6      
     e(  7 -  8) =     -7.84624  eV     2   --> G_4   L_6      
     e(  9 -  9) =     -7.80527  eV     1   --> G_6   L_5      
     e( 10 - 10) =     -7.80421  eV     1   --> G_5   L_4      
     e( 11 - 12) =     -4.25815  eV     2   --> G_4   L_6      
     e( 13 - 14) =      0.11179  eV     2   --> G_4   L_6      
     e( 15 - 16) =      5.48212  eV     2   --> G_4   L_6      
     e( 17 - 17) =      5.68848  eV     1   --> G_5   L_4      
     e( 18 - 18) =      5.68899  eV     1   --> G_6   L_5      
     e( 19 - 20) =      7.72848  eV     2   --> G_4   L_6      
     e( 21 - 22) =     11.31583  eV     2   --> G_4   L_6      
     e( 23 - 23) =     11.40861  eV     1   --> G_5   L_4      
     e( 24 - 24) =     11.40889  eV     1   --> G_6   L_5      
     e( 25 - 26) =     14.54266  eV     2   --> G_4   L_6      

 **************************************************************************

 **************************************************************************

                    xk=(   0.45000,   0.45000,   0.45000  )

     Band symmetry, C_3v (3m)   double point group:

     e(  1 -  2) =     -8.32507  eV     2   --> G_4   L_6      
     e(  3 -  3) =     -8.29805  eV     1   --> G_5   L_4      
     e(  4 -  4) =     -8.29618  eV     1   --> G_6   L_5      
     e(  5 -  6) =     -7.88678  eV     2   --> G_4   L_6      
     e(  7 -  8) =     -7.84596  eV     2   --> G_4   L_6      
     e(  9 -  9) =     -7.80616  eV     1   --> G_6   L_5      
     e( 10 - 10) =     -7.80406  eV     1   --> G_5   L_4      
     e( 11 - 12) =     -4.31204  eV     2   --> G_4   L_6      
     e( 13 - 14) =      0.20957  eV     2   --> G_4   L_6      
     e( 15 - 16) =      5.49695  eV     2   --> G_4   L_6      
     e( 17 - 17) =      5.70313  eV     1   --> G_5   L_4      
     e( 18 - 18) =      5.70415  eV     1   --> G_6   L_5      
     e( 19 - 20) =      7.74376  eV     2   --> G_4   L_6      
     e( 21 - 22) =     11.32343  eV     2   --> G_4   L_6      
     e( 23 - 23) =     11.41743  eV     1   --> G_5   L_4      
     e( 24 - 24) =     11.41799  eV     1   --> G_6   L_5      
     e( 25 - 26) =     14.54591  eV     2   --> G_4   L_6      

 **************************************************************************

 **************************************************************************

                    xk=(   0.42500,   0.42500,   0.42500  )

     Band symmetry, C_3v (3m)   double point group:

     e(  1 -  2) =     -8.32434  eV     2   --> G_4   L_6      
     e(  3 -  3) =     -8.29863  eV     1   --> G_5   L_4      
     e(  4 -  4) =     -8.29588  eV     1   --> G_6   L_5      
     e(  5 -  6) =     -7.88669  eV     2   --> G_4   L_6      
     e(  7 -  8) =     -7.84550  eV     2   --> G_4   L_6      
     e(  9 -  9) =     -7.80731  eV     1   --> G_6   L_5      
     e( 10 - 10) =     -7.80422  eV     1   --> G_5   L_4      
     e( 11 - 12) =     -4.39629  eV     2   --> G_4   L_6      
     e( 13 - 14) =      0.36684  eV     2   --> G_4   L_6      
     e( 15 - 16) =      5.52152  eV     2   --> G_4   L_6      
     e( 17 - 17) =      5.72762  eV     1   --> G_5   L_4      
     e( 18 - 18) =      5.72912  eV     1   --> G_6   L_5      
     e( 19 - 20) =      7.76899  eV     2   --> G_4   L_6      
     e( 21 - 22) =     11.33475  eV     2   --> G_4   L_6      
     e( 23 - 23) =     11.43087  eV     1   --> G_5   L_4      
     e( 24 - 24) =     11.43173  eV     1   --> G_6   L_5      
     e( 25 - 26) =     14.54126  eV     2   --> G_4   L_6      

 **************************************************************************

 **************************************************************************

                    xk=(   0.40000,   0.40000,   0.40000  )

     Band symmetry, C_3v (3m)   double point group:

     e(  1 -  2) =     -8.32330  eV     2   --> G_4   L_6      
     e(  3 -  3) =     -8.29919  eV     1   --> G_5   L_4      
     e(  4 -  4) =     -8.29563  eV     1   --> G_6   L_5      
     e(  5 -  6) =     -7.88649  eV     2   --> G_4   L_6      
     e(  7 -  8) =     -7.84484  eV     2   --> G_4   L_6      
     e(  9 -  9) =     -7.80859  eV     1   --> G_6   L_5      
     e( 10 - 10) =     -7.80459  eV     1   --> G_5   L_4      
     e( 11 - 12) =     -4.50424  eV     2   --> G_4   L_6      
     e( 13 - 14) =      0.57674  eV     2   --> G_4   L_6      
     e( 15 - 16) =      5.55571  eV     2   --> G_4   L_6      
     e( 17 - 17) =      5.76180  eV     1   --> G_5   L_4      
     e( 18 - 18) =      5.76376  eV     1   --> G_6   L_5      
     e( 19 - 20) =      7.80403  eV     2   --> G_4   L_6      
     e( 21 - 22) =     11.34788  eV     2   --> G_4   L_6      
     e( 23 - 23) =     11.44700  eV     1   --> G_5   L_4      
     e( 24 - 24) =     11.44820  eV     1   --> G_6   L_5      
     e( 25 - 26) =     14.50811  eV     2   --> G_4   L_6      

 **************************************************************************

 **************************************************************************

                    xk=(   0.37500,   0.37500,   0.37500  )

     Band symmetry, C_3v (3m)   double point group:

     e(  1 -  2) =     -8.32204  eV     2   --> G_4   L_6      
     e(  3 -  3) =     -8.29978  eV     1   --> G_5   L_4      
     e(  4 -  4) =     -8.29549  eV     1   --> G_6   L_5      
     e(  5 -  6) =     -7.88626  eV     2   --> G_4   L_6      
     e(  7 -  8) =     -7.84400  eV     2   --> G_4   L_6      
     e(  9 -  9) =     -7.81004  eV     1   --> G_6   L_5      
     e( 10 - 10) =     -7.80522  eV     1   --> G_5   L_4      
     e( 11 - 12) =     -4.62886  eV     2   --> G_4   L_6      
     e( 13 - 14) =      0.83196  eV     2   --> G_4   L_6      
     e( 15 - 16) =      5.59920  eV     2   --> G_4   L_6      
     e( 17 - 17) =      5.80538  eV     1   --> G_5   L_4      
     e( 18 - 18) =      5.80777  eV     1   --> G_6   L_5      
     e( 19 - 20) =      7.84844  eV     2   --> G_4   L_6      
     e( 21 - 22) =     11.35984  eV     2   --> G_4   L_6      
     e( 23 - 23) =     11.46284  eV     1   --> G_5   L_4      
     e( 24 - 24) =     11.46439  eV     1   --> G_6   L_5      
     e( 25 - 26) =     14.40783  eV     2   --> G_4   L_6      

 **************************************************************************

 **************************************************************************

                    xk=(   0.35000,   0.35000,   0.35000  )

     Band symmetry, C_3v (3m)   double point group:

     e(  1 -  2) =     -8.32056  eV     2   --> G_4   L_6      
     e(  3 -  3) =     -8.30037  eV     1   --> G_5   L_4      
     e(  4 -  4) =     -8.29545  eV     1   --> G_6   L_5      
     e(  5 -  6) =     -7.88593  eV     2   --> G_4   L_6      
     e(  7 -  8) =     -7.84300  eV     2   --> G_4   L_6      
     e(  9 -  9) =     -7.81160  eV     1   --> G_6   L_5      
     e( 10 - 10) =     -7.80609  eV     1   --> G_5   L_4      
     e( 11 - 12) =     -4.76372  eV     2   --> G_4   L_6      
     e( 13 - 14) =      1.12570  eV     2   --> G_4   L_6      
     e( 15 - 16) =      5.65163  eV     2   --> G_4   L_6      
     e( 17 - 17) =      5.85802  eV     1   --> G_5   L_4      
     e( 18 - 18) =      5.86078  eV     1   --> G_6   L_5      
     e( 19 - 20) =      7.90167  eV     2   --> G_4   L_6      
     e( 21 - 22) =     11.36692  eV     2   --> G_4   L_6      
     e( 23 - 23) =     11.47455  eV     1   --> G_5   L_4      
     e( 24 - 24) =     11.47647  eV     1   --> G_6   L_5      
     e( 25 - 26) =     14.19985  eV     2   --> G_4   L_6      

 **************************************************************************

 **************************************************************************

                    xk=(   0.32500,   0.32500,   0.32500  )

     Band symmetry, C_3v (3m)   double point group:

     e(  1 -  2) =     -8.31895  eV     2   --> G_4   L_6      
     e(  3 -  3) =     -8.30092  eV     1   --> G_5   L_4      
     e(  4 -  4) =     -8.29550  eV     1   --> G_6   L_5      
     e(  5 -  6) =     -7.88553  eV     2   --> G_4   L_6      
     e(  7 -  8) =     -7.84182  eV     2   --> G_4   L_6      
     e(  9 -  9) =     -7.81324  eV     1   --> G_6   L_5      
     e( 10 - 10) =     -7.80715  eV     1   --> G_5   L_4      
     e( 11 - 12) =     -4.90338  eV     2   --> G_4   L_6      
     e( 13 - 14) =      1.45203  eV     2   --> G_4   L_6      
     e( 15 - 16) =      5.71254  eV     2   --> G_4   L_6      
     e( 17 - 17) =      5.91927  eV     1   --> G_5   L_4      
     e( 18 - 18) =      5.92236  eV     1   --> G_6   L_5      
     e( 19 - 20) =      7.96278  eV     2   --> G_4   L_6      
     e( 21 - 22) =     11.36487  eV     2   --> G_4   L_6      
     e( 23 - 23) =     11.47772  eV     1   --> G_5   L_4      
     e( 24 - 24) =     11.47999  eV     1   --> G_6   L_5      
     e( 25 - 26) =     13.88761  eV     2   --> G_4   L_6      

 **************************************************************************

 **************************************************************************

                    xk=(   0.30000,   0.30000,   0.30000  )

     Band symmetry, C_3v (3m)   double point group:

     e(  1 -  2) =     -8.31716  eV     2   --> G_4   L_6      
     e(  3 -  3) =     -8.30142  eV     1   --> G_5   L_4      
     e(  4 -  4) =     -8.29563  eV     1   --> G_6   L_5      
     e(  5 -  6) =     -7.88498  eV     2   --> G_4   L_6      
     e(  7 -  8) =     -7.84045  eV     2   --> G_4   L_6      
     e(  9 -  9) =     -7.81486  eV     1   --> G_6   L_5      
     e( 10 - 10) =     -7.80836  eV     1   --> G_5   L_4      
     e( 11 - 12) =     -5.04345  eV     2   --> G_4   L_6      
     e( 13 - 14) =      1.80598  eV     2   --> G_4   L_6      
     e( 15 - 16) =      5.78133  eV     2   --> G_4   L_6      
     e( 17 - 17) =      5.98855  eV     1   --> G_5   L_4      
     e( 18 - 18) =      5.99190  eV     1   --> G_6   L_5      
     e( 19 - 20) =      8.03059  eV     2   --> G_4   L_6      
     e( 21 - 22) =     11.34900  eV     2   --> G_4   L_6      
     e( 23 - 23) =     11.46735  eV     1   --> G_5   L_4      
     e( 24 - 24) =     11.46993  eV     1   --> G_6   L_5      
     e( 25 - 26) =     13.51255  eV     2   --> G_4   L_6      

 **************************************************************************

 **************************************************************************

                    xk=(   0.27500,   0.27500,   0.27500  )

     Band symmetry, C_3v (3m)   double point group:

     e(  1 -  2) =     -8.31530  eV     2   --> G_4   L_6      
     e(  3 -  3) =     -8.30189  eV     1   --> G_5   L_4      
     e(  4 -  4) =     -8.29587  eV     1   --> G_6   L_5      
     e(  5 -  6) =     -7.88434  eV     2   --> G_4   L_6      
     e(  7 -  8) =     -7.83895  eV     2   --> G_4   L_6      
     e(  9 -  9) =     -7.81648  eV     1   --> G_6   L_5      
     e( 10 - 10) =     -7.80972  eV     1   --> G_5   L_4      
     e( 11 - 12) =     -5.18047  eV     2   --> G_4   L_6      
     e( 13 - 14) =      2.18337  eV     2   --> G_4   L_6      
     e( 15 - 16) =      5.85712  eV     2   --> G_4   L_6      
     e( 17 - 17) =      6.06499  eV     1   --> G_5   L_4      
     e( 18 - 18) =      6.06855  eV     1   --> G_6   L_5      
     e( 19 - 20) =      8.10312  eV     2   --> G_4   L_6      
     e( 21 - 22) =     11.31501  eV     2   --> G_4   L_6      
     e( 23 - 23) =     11.43869  eV     1   --> G_5   L_4      
     e( 24 - 24) =     11.44148  eV     1   --> G_6   L_5      
     e( 25 - 26) =     13.10978  eV     2   --> G_4   L_6      

 **************************************************************************

 **************************************************************************

                    xk=(   0.25000,   0.25000,   0.25000  )

     Band symmetry, C_3v (3m)   double point group:

     e(  1 -  2) =     -8.31341  eV     2   --> G_4   L_6      
     e(  3 -  3) =     -8.30231  eV     1   --> G_5   L_4      
     e(  4 -  4) =     -8.29620  eV     1   --> G_6   L_5      
     e(  5 -  6) =     -7.88359  eV     2   --> G_4   L_6      
     e(  7 -  8) =     -7.83732  eV     2   --> G_4   L_6      
     e(  9 -  9) =     -7.81805  eV     1   --> G_6   L_5      
     e( 10 - 10) =     -7.81120  eV     1   --> G_5   L_4      
     e( 11 - 12) =     -5.31174  eV     2   --> G_4   L_6      
     e( 13 - 14) =      2.58061  eV     2   --> G_4   L_6      
     e( 15 - 16) =      5.93894  eV     2   --> G_4   L_6      
     e( 17 - 17) =      6.14763  eV     1   --> G_5   L_4      
     e( 18 - 18) =      6.15131  eV     1   --> G_6   L_5      
     e( 19 - 20) =      8.17751  eV     2   --> G_4   L_6      
     e( 21 - 22) =     11.26005  eV     2   --> G_4   L_6      
     e( 23 - 23) =     11.38837  eV     1   --> G_5   L_4      
     e( 24 - 24) =     11.39123  eV     1   --> G_6   L_5      
     e( 25 - 26) =     12.69959  eV     2   --> G_4   L_6      

 **************************************************************************

 **************************************************************************

                    xk=(   0.22500,   0.22500,   0.22500  )

     Band symmetry, C_3v (3m)   double point group:

     e(  1 -  2) =     -8.31156  eV     2   --> G_4   L_6      
     e(  3 -  3) =     -8.30267  eV     1   --> G_5   L_4      
     e(  4 -  4) =     -8.29663  eV     1   --> G_6   L_5      
     e(  5 -  6) =     -7.88278  eV     2   --> G_4   L_6      
     e(  7 -  8) =     -7.83561  eV     2   --> G_4   L_6      
     e(  9 -  9) =     -7.81953  eV     1   --> G_6   L_5      
     e( 10 - 10) =     -7.81276  eV     1   --> G_5   L_4      
     e( 11 - 12) =     -5.43515  eV     2   --> G_4   L_6      
     e( 13 - 14) =      2.99446  eV     2   --> G_4   L_6      
     e( 15 - 16) =      6.02546  eV     2   --> G_4   L_6      
     e( 17 - 17) =      6.23514  eV     1   --> G_5   L_4      
     e( 18 - 18) =      6.23888  eV     1   --> G_6   L_5      
     e( 19 - 20) =      8.24936  eV     2   --> G_4   L_6      
     e( 21 - 22) =     11.18337  eV     2   --> G_4   L_6      
     e( 23 - 23) =     11.31519  eV     1   --> G_5   L_4      
     e( 24 - 24) =     11.31795  eV     1   --> G_6   L_5      
     e( 25 - 26) =     12.29390  eV     2   --> G_4   L_6      

 **************************************************************************

 **************************************************************************

                    xk=(   0.20000,   0.20000,   0.20000  )

     Band symmetry, C_3v (3m)   double point group:

     e(  1 -  2) =     -8.30980  eV     2   --> G_4   L_6      
     e(  3 -  3) =     -8.30297  eV     1   --> G_5   L_4      
     e(  4 -  4) =     -8.29715  eV     1   --> G_6   L_5      
     e(  5 -  6) =     -7.88192  eV     2   --> G_4   L_6      
     e(  7 -  8) =     -7.83384  eV     2   --> G_4   L_6      
     e(  9 -  9) =     -7.82089  eV     1   --> G_6   L_5      
     e( 10 - 10) =     -7.81436  eV     1   --> G_5   L_4      
     e( 11 - 12) =     -5.54905  eV     2   --> G_4   L_6      
     e( 13 - 14) =      3.42194  eV     2   --> G_4   L_6      
     e( 15 - 16) =      6.11511  eV     2   --> G_4   L_6      
     e( 17 - 17) =      6.32593  eV     1   --> G_5   L_4      
     e( 18 - 18) =      6.32963  eV     1   --> G_6   L_5      
     e( 19 - 20) =      8.31213  eV     2   --> G_4   L_6      
     e( 21 - 22) =     11.08708  eV     2   --> G_4   L_6      
     e( 23 - 23) =     11.22101  eV     1   --> G_5   L_4      
     e( 24 - 24) =     11.22353  eV     1   --> G_6   L_5      
     e( 25 - 26) =     11.90231  eV     2   --> G_4   L_6      

 **************************************************************************

 **************************************************************************

                    xk=(   0.17500,   0.17500,   0.17500  )

     Band symmetry, C_3v (3m)   double point group:

     e(  1 -  2) =     -8.30808  eV     2   --> G_4   L_6      
     e(  3 -  3) =     -8.30314  eV     1   --> G_5   L_4      
     e(  4 -  4) =     -8.29768  eV     1   --> G_6   L_5      
     e(  5 -  6) =     -7.88096  eV     2   --> G_4   L_6      
     e(  7 -  8) =     -7.83200  eV     2   --> G_4   L_6      
     e(  9 -  9) =     -7.82203  eV     1   --> G_6   L_5      
     e( 10 - 10) =     -7.81591  eV     1   --> G_5   L_4      
     e( 11 - 12) =     -5.65211  eV     2   --> G_4   L_6      
     e( 13 - 14) =      3.86022  eV     2   --> G_4   L_6      
     e( 15 - 16) =      6.20601  eV     2   --> G_4   L_6      
     e( 17 - 17) =      6.41806  eV     1   --> G_5   L_4      
     e( 18 - 18) =      6.42164  eV     1   --> G_6   L_5      
     e( 19 - 20) =      8.35597  eV     2   --> G_4   L_6      
     e( 21 - 22) =     10.97572  eV     2   --> G_4   L_6      
     e( 23 - 23) =     11.11064  eV     1   --> G_5   L_4      
     e( 24 - 24) =     11.11279  eV     1   --> G_6   L_5      
     e( 25 - 26) =     11.53516  eV     2   --> G_4   L_6      

 **************************************************************************

 **************************************************************************

                    xk=(   0.15000,   0.15000,   0.15000  )

     Band symmetry, C_3v (3m)   double point group:

     e(  1 -  2) =     -8.30657  eV     2   --> G_4   L_6      
     e(  3 -  3) =     -8.30326  eV     1   --> G_5   L_4      
     e(  4 -  4) =     -8.29830  eV     1   --> G_6   L_5      
     e(  5 -  6) =     -7.88005  eV     2   --> G_4   L_6      
     e(  7 -  8) =     -7.83026  eV     2   --> G_4   L_6      
     e(  9 -  9) =     -7.82303  eV     1   --> G_6   L_5      
     e( 10 - 10) =     -7.81747  eV     1   --> G_5   L_4      
     e( 11 - 12) =     -5.74331  eV     2   --> G_4   L_6      
     e( 13 - 14) =      4.30604  eV     2   --> G_4   L_6      
     e( 15 - 16) =      6.29564  eV     2   --> G_4   L_6      
     e( 17 - 17) =      6.50889  eV     1   --> G_5   L_4      
     e( 18 - 18) =      6.51224  eV     1   --> G_6   L_5      
     e( 19 - 20) =      8.36660  eV     2   --> G_4   L_6      
     e( 21 - 22) =     10.85483  eV     2   --> G_4   L_6      
     e( 23 - 23) =     10.99076  eV     1   --> G_5   L_4      
     e( 24 - 24) =     10.99249  eV     1   --> G_6   L_5      
     e( 25 - 26) =     11.20584  eV     2   --> G_4   L_6      

 **************************************************************************

 **************************************************************************

                    xk=(   0.12500,   0.12500,   0.12500  )

     Band symmetry, C_3v (3m)   double point group:

     e(  1 -  2) =     -8.30526  eV     2   --> G_4   L_6      
     e(  3 -  3) =     -8.30329  eV     1   --> G_5   L_4      
     e(  4 -  4) =     -8.29895  eV     1   --> G_6   L_5      
     e(  5 -  6) =     -7.87919  eV     2   --> G_4   L_6      
     e(  7 -  8) =     -7.82861  eV     2   --> G_4   L_6      
     e(  9 -  9) =     -7.82382  eV     1   --> G_6   L_5      
     e( 10 - 10) =     -7.81895  eV     1   --> G_5   L_4      
     e( 11 - 12) =     -5.82180  eV     2   --> G_4   L_6      
     e( 13 - 14) =      4.75587  eV     2   --> G_4   L_6      
     e( 15 - 16) =      6.38137  eV     2   --> G_4   L_6      
     e( 17 - 17) =      6.59549  eV     1   --> G_5   L_4      
     e( 18 - 18) =      6.59851  eV     1   --> G_6   L_5      
     e( 19 - 20) =      8.32568  eV     2   --> G_4   L_6      
     e( 21 - 22) =     10.72869  eV     2   --> G_4   L_6      
     e( 23 - 23) =     10.86955  eV     1   --> G_5   L_4      
     e( 24 - 24) =     10.87086  eV     1   --> G_6   L_5      
     e( 25 - 26) =     10.93323  eV     2   --> G_4   L_6      

 **************************************************************************

 **************************************************************************

                    xk=(   0.10000,   0.10000,   0.10000  )

     Band symmetry, C_3v (3m)   double point group:

     e(  1 -  2) =     -8.30410  eV     2   --> G_4   L_6      
     e(  3 -  3) =     -8.30321  eV     1   --> G_5   L_4      
     e(  4 -  4) =     -8.29960  eV     1   --> G_6   L_5      
     e(  5 -  6) =     -7.87839  eV     2   --> G_4   L_6      
     e(  7 -  8) =     -7.82710  eV     2   --> G_4   L_6      
     e(  9 -  9) =     -7.82434  eV     1   --> G_6   L_5      
     e( 10 - 10) =     -7.82030  eV     1   --> G_5   L_4      
     e( 11 - 12) =     -5.88691  eV     2   --> G_4   L_6      
     e( 13 - 14) =      5.20527  eV     2   --> G_4   L_6      
     e( 15 - 16) =      6.46038  eV     2   --> G_4   L_6      
     e( 17 - 17) =      6.67439  eV     1   --> G_5   L_4      
     e( 18 - 18) =      6.67699  eV     1   --> G_6   L_5      
     e( 19 - 20) =      8.21498  eV     2   --> G_4   L_6      
     e( 21 - 22) =     10.59757  eV     2   --> G_4   L_6      
     e( 23 - 24) =     10.73965  eV     2   --> G_4   L_6      
     e( 25 - 25) =     10.75542  eV     1   --> G_5   L_4      
     e( 26 - 26) =     10.75633  eV     1   --> G_6   L_5      

 **************************************************************************

 **************************************************************************

                    xk=(   0.07500,   0.07500,   0.07500  )

     Band symmetry, C_3v (3m)   double point group:

     e(  1 -  2) =     -8.30318  eV     2   --> G_4   L_6      
     e(  3 -  3) =     -8.30303  eV     1   --> G_5   L_4      
     e(  4 -  4) =     -8.30024  eV     1   --> G_6   L_5      
     e(  5 -  6) =     -7.87770  eV     2   --> G_4   L_6      
     e(  7 -  8) =     -7.82583  eV     2   --> G_4   L_6      
     e(  9 -  9) =     -7.82462  eV     1   --> G_6   L_5      
     e( 10 - 10) =     -7.82150  eV     1   --> G_5   L_4      
     e( 11 - 12) =     -5.93809  eV     2   --> G_4   L_6      
     e( 13 - 14) =      5.64729  eV     2   --> G_4   L_6      
     e( 15 - 16) =      6.53062  eV     2   --> G_4   L_6      
     e( 17 - 17) =      6.74176  eV     1   --> G_5   L_4      
     e( 18 - 18) =      6.74383  eV     1   --> G_6   L_5      
     e( 19 - 20) =      8.02529  eV     2   --> G_4   L_6      
     e( 21 - 22) =     10.47575  eV     2   --> G_4   L_6      
     e( 23 - 24) =     10.62348  eV     2   --> G_4   L_6      
     e( 25 - 25) =     10.65642  eV     1   --> G_5   L_4      
     e( 26 - 26) =     10.65702  eV     1   --> G_6   L_5      

 **************************************************************************

 **************************************************************************

                    xk=(   0.05000,   0.05000,   0.05000  )

     Band symmetry, C_3v (3m)   double point group:

     e(  1 -  1) =     -8.30277  eV     1   --> G_5   L_4      
     e(  2 -  3) =     -8.30250  eV     2   --> G_4   L_6      
     e(  4 -  4) =     -8.30087  eV     1   --> G_6   L_5      
     e(  5 -  6) =     -7.87720  eV     2   --> G_4   L_6      
     e(  7 -  8) =     -7.82487  eV     2   --> G_4   L_6      
     e(  9 -  9) =     -7.82467  eV     1   --> G_6   L_5      
     e( 10 - 10) =     -7.82254  eV     1   --> G_5   L_4      
     e( 11 - 12) =     -5.97495  eV     2   --> G_4   L_6      
     e( 13 - 14) =      6.06663  eV     2   --> G_4   L_6      
     e( 15 - 16) =      6.59506  eV     2   --> G_4   L_6      
     e( 17 - 17) =      6.79358  eV     1   --> G_5   L_4      
     e( 18 - 18) =      6.79501  eV     1   --> G_6   L_5      
     e( 19 - 20) =      7.76440  eV     2   --> G_4   L_6      
     e( 21 - 22) =     10.38790  eV     2   --> G_4   L_6      
     e( 23 - 24) =     10.55730  eV     2   --> G_4   L_6      
     e( 25 - 25) =     10.57975  eV     1   --> G_5   L_4      
     e( 26 - 26) =     10.58009  eV     1   --> G_6   L_5      

 **************************************************************************

 **************************************************************************

                    xk=(   0.02500,   0.02500,   0.02500  )

     Band symmetry, C_3v (3m)   double point group:

     e(  1 -  1) =     -8.30241  eV     1   --> G_5   L_4      
     e(  2 -  3) =     -8.30209  eV     2   --> G_4   L_6      
     e(  4 -  4) =     -8.30145  eV     1   --> G_6   L_5      
     e(  5 -  6) =     -7.87688  eV     2   --> G_4   L_6      
     e(  7 -  7) =     -7.82448  eV     1   --> G_6   L_5      
     e(  8 -  9) =     -7.82426  eV     2   --> G_4   L_6      
     e( 10 - 10) =     -7.82340  eV     1   --> G_5   L_4      
     e( 11 - 12) =     -5.99718  eV     2   --> G_4   L_6      
     e( 13 - 14) =      6.40035  eV     2   --> G_4   L_6      
     e( 15 - 16) =      6.69248  eV     2   --> G_4   L_6      
     e( 17 - 17) =      6.82650  eV     1   --> G_5   L_4      
     e( 18 - 18) =      6.82723  eV     1   --> G_6   L_5      
     e( 19 - 20) =      7.46224  eV     2   --> G_4   L_6      
     e( 21 - 22) =     10.33742  eV     2   --> G_4   L_6      
     e( 23 - 24) =     10.52430  eV     2   --> G_4   L_6      
     e( 25 - 25) =     10.53122  eV     1   --> G_5   L_4      
     e( 26 - 26) =     10.53137  eV     1   --> G_6   L_5      

 **************************************************************************

 **************************************************************************

                    xk=(   0.00000,   0.00000,   0.00000  )

     double point group T_d (-43m) 
     there are  8 classes and  3 irreducible representations
     the character table:

       E     -E    8C3   -8C3   3C2  6S4   -6S4  6s_d 
                               -3C2              -6s_d
G_6    2.00 -2.00  1.00 -1.00  0.00  1.41 -1.41  0.00
G_7    2.00 -2.00  1.00 -1.00  0.00 -1.41  1.41  0.00
G_8    4.00 -4.00 -1.00  1.00  0.00  0.00  0.00  0.00

     the symmetry operations in each class and the name of the first element:

     E             1
                                                                 
     -E           -1
                                                                 
     8C3           5    7    8    6   12    9   10   11
                                                                 
     -8C3         -5   -7   -8   -6  -12   -9  -10  -11
                                                                 
      3C2 -3C2     2   -2    3   -3    4   -4
                                                                 
     6S4          15   16   20   19   23   24
                                                                 
     -6S4        -15  -16  -20  -19  -23  -24
                                                                 
     6s_d -6s_d   13  -13  -14   14   17  -17  -18   18   21  -21   22  -22
                                                                 

     Band symmetry, T_d (-43m)  double point group:

     e(  1 -  4) =     -8.30198  eV     4   --> G_8  P_8       
     e(  5 -  6) =     -7.87679  eV     2   --> G_7  P_7       
     e(  7 - 10) =     -7.82407  eV     4   --> G_8  P_8       
     e( 11 - 12) =     -6.00461  eV     2   --> G_6  P_6       
     e( 13 - 14) =      6.50246  eV     2   --> G_7  P_7       
     e( 15 - 18) =      6.83797  eV     4   --> G_8  P_8       
     e( 19 - 20) =      7.25658  eV     2   --> G_6  P_6       
     e( 21 - 22) =     10.32099  eV     2   --> G_7  P_7       
     e( 23 - 26) =     10.51464  eV     4   --> G_8  P_8       

 **************************************************************************

 **************************************************************************

                    xk=(   0.00000,   0.05000,   0.00000  )

     double point group C_2v (mm2) 
     there are  5 classes and  1 irreducible representations
     the character table:

       E     -E     C2    s_v   s_v'
                   -C2   -s_v  -s_v'
G_5    2.00 -2.00  0.00  0.00  0.00

     the symmetry operations in each class and the name of the first element:

     E             1
                                                                 
     -E           -1
                                                                 
      C2  -C2      2   -2
                                                                 
      s_v -s_v     4   -4
                                                                 
      s_v'-s_v'    3   -3
                                                                 

     Band symmetry, C_2v (mm2)  double point group:

     e(  1 -  2) =     -8.30247  eV     2   --> G_5  D_5       
     e(  3 -  4) =     -8.30158  eV     2   --> G_5  D_5       
     e(  5 -  6) =     -7.87691  eV     2   --> G_5  D_5       
     e(  7 -  8) =     -7.82456  eV     2   --> G_5  D_5       
     e(  9 - 10) =     -7.82368  eV     2   --> G_5  D_5       
     e( 11 - 12) =     -5.99470  eV     2   --> G_5  D_5       
     e( 13 - 14) =      6.37621  eV     2   --> G_5  D_5       
     e( 15 - 16) =      6.66530  eV     2   --> G_5  D_5       
     e( 17 - 18) =      6.80180  eV     2   --> G_5  D_5       
     e( 19 - 20) =      7.52200  eV     2   --> G_5  D_5       
     e( 21 - 22) =     10.33330  eV     2   --> G_5  D_5       
     e( 23 - 24) =     10.51423  eV     2   --> G_5  D_5       
     e( 25 - 26) =     10.55897  eV     2   --> G_5  D_5       

 **************************************************************************

 **************************************************************************

                    xk=(   0.00000,   0.10000,   0.00000  )

     Band symmetry, C_2v (mm2)  double point group:

     e(  1 -  2) =     -8.30336  eV     2   --> G_5  D_5       
     e(  3 -  4) =     -8.30107  eV     2   --> G_5  D_5       
     e(  5 -  6) =     -7.87734  eV     2   --> G_5  D_5       
     e(  7 -  8) =     -7.82513  eV     2   --> G_5  D_5       
     e(  9 - 10) =     -7.82342  eV     2   --> G_5  D_5       
     e( 11 - 12) =     -5.96507  eV     2   --> G_5  D_5       
     e( 13 - 14) =      6.01796  eV     2   --> G_5  D_5       
     e( 15 - 16) =      6.51452  eV     2   --> G_5  D_5       
     e( 17 - 18) =      6.69903  eV     2   --> G_5  D_5       
     e( 19 - 20) =      7.93326  eV     2   --> G_5  D_5       
     e( 21 - 22) =     10.28432  eV     2   --> G_5  D_5       
     e( 23 - 24) =     10.60017  eV     2   --> G_5  D_5       
     e( 25 - 26) =     10.68736  eV     2   --> G_5  D_5       

 **************************************************************************

 **************************************************************************

                    xk=(   0.00000,   0.15000,   0.00000  )

     Band symmetry, C_2v (mm2)  double point group:

     e(  1 -  2) =     -8.30473  eV     2   --> G_5  D_5       
     e(  3 -  4) =     -8.30038  eV     2   --> G_5  D_5       
     e(  5 -  6) =     -7.87811  eV     2   --> G_5  D_5       
     e(  7 -  8) =     -7.82571  eV     2   --> G_5  D_5       
     e(  9 - 10) =     -7.82331  eV     2   --> G_5  D_5       
     e( 11 - 12) =     -5.91596  eV     2   --> G_5  D_5       
     e( 13 - 14) =      5.59546  eV     2   --> G_5  D_5       
     e( 15 - 16) =      6.36209  eV     2   --> G_5  D_5       
     e( 17 - 18) =      6.54434  eV     2   --> G_5  D_5       
     e( 19 - 20) =      8.35215  eV     2   --> G_5  D_5       
     e( 21 - 22) =     10.14803  eV     2   --> G_5  D_5       
     e( 23 - 24) =     10.80197  eV     2   --> G_5  D_5       
     e( 25 - 26) =     10.88823  eV     2   --> G_5  D_5       

 **************************************************************************

 **************************************************************************

                    xk=(   0.00000,   0.20000,   0.00000  )

     Band symmetry, C_2v (mm2)  double point group:

     e(  1 -  2) =     -8.30657  eV     2   --> G_5  D_5       
     e(  3 -  4) =     -8.29943  eV     2   --> G_5  D_5       
     e(  5 -  6) =     -7.87918  eV     2   --> G_5  D_5       
     e(  7 -  8) =     -7.82614  eV     2   --> G_5  D_5       
     e(  9 - 10) =     -7.82324  eV     2   --> G_5  D_5       
     e( 11 - 12) =     -5.84776  eV     2   --> G_5  D_5       
     e( 13 - 14) =      5.16213  eV     2   --> G_5  D_5       
     e( 15 - 16) =      6.18390  eV     2   --> G_5  D_5       
     e( 17 - 18) =      6.35458  eV     2   --> G_5  D_5       
     e( 19 - 20) =      8.75134  eV     2   --> G_5  D_5       
     e( 21 - 22) =      9.97707  eV     2   --> G_5  D_5       
     e( 23 - 24) =     11.07385  eV     2   --> G_5  D_5       
     e( 25 - 26) =     11.14751  eV     2   --> G_5  D_5       

 **************************************************************************

 **************************************************************************

                    xk=(   0.00000,   0.25000,   0.00000  )

     Band symmetry, C_2v (mm2)  double point group:

     e(  1 -  2) =     -8.30882  eV     2   --> G_5  D_5       
     e(  3 -  4) =     -8.29825  eV     2   --> G_5  D_5       
     e(  5 -  6) =     -7.88054  eV     2   --> G_5  D_5       
     e(  7 -  8) =     -7.82632  eV     2   --> G_5  D_5       
     e(  9 - 10) =     -7.82321  eV     2   --> G_5  D_5       
     e( 11 - 12) =     -5.76101  eV     2   --> G_5  D_5       
     e( 13 - 14) =      4.72835  eV     2   --> G_5  D_5       
     e( 15 - 16) =      5.98678  eV     2   --> G_5  D_5       
     e( 17 - 18) =      6.14436  eV     2   --> G_5  D_5       
     e( 19 - 20) =      9.09553  eV     2   --> G_5  D_5       
     e( 21 - 22) =      9.81464  eV     2   --> G_5  D_5       
     e( 23 - 24) =     11.39338  eV     2   --> G_5  D_5       
     e( 25 - 26) =     11.45210  eV     2   --> G_5  D_5       

 **************************************************************************

 **************************************************************************

                    xk=(   0.00000,   0.30000,   0.00000  )

     Band symmetry, C_2v (mm2)  double point group:

     e(  1 -  2) =     -8.31141  eV     2   --> G_5  D_5       
     e(  3 -  4) =     -8.29689  eV     2   --> G_5  D_5       
     e(  5 -  6) =     -7.88216  eV     2   --> G_5  D_5       
     e(  7 -  8) =     -7.82613  eV     2   --> G_5  D_5       
     e(  9 - 10) =     -7.82320  eV     2   --> G_5  D_5       
     e( 11 - 12) =     -5.65635  eV     2   --> G_5  D_5       
     e( 13 - 14) =      4.29749  eV     2   --> G_5  D_5       
     e( 15 - 16) =      5.77958  eV     2   --> G_5  D_5       
     e( 17 - 18) =      5.92480  eV     2   --> G_5  D_5       
     e( 19 - 20) =      9.27488  eV     2   --> G_5  D_5       
     e( 21 - 22) =      9.76474  eV     2   --> G_5  D_5       
     e( 23 - 24) =     11.74703  eV     2   --> G_5  D_5       
     e( 25 - 26) =     11.79117  eV     2   --> G_5  D_5       

 **************************************************************************

 **************************************************************************

                    xk=(   0.00000,   0.35000,   0.00000  )

     Band symmetry, C_2v (mm2)  double point group:

     e(  1 -  2) =     -8.31429  eV     2   --> G_5  D_5       
     e(  3 -  4) =     -8.29539  eV     2   --> G_5  D_5       
     e(  5 -  6) =     -7.88397  eV     2   --> G_5  D_5       
     e(  7 -  8) =     -7.82555  eV     2   --> G_5  D_5       
     e(  9 - 10) =     -7.82319  eV     2   --> G_5  D_5       
     e( 11 - 12) =     -5.53456  eV     2   --> G_5  D_5       
     e( 13 - 14) =      3.87120  eV     2   --> G_5  D_5       
     e( 15 - 16) =      5.56973  eV     2   --> G_5  D_5       
     e( 17 - 18) =      5.70397  eV     2   --> G_5  D_5       
     e( 19 - 20) =      9.19781  eV     2   --> G_5  D_5       
     e( 21 - 22) =      9.90202  eV     2   --> G_5  D_5       
     e( 23 - 24) =     12.12553  eV     2   --> G_5  D_5       
     e( 25 - 26) =     12.15655  eV     2   --> G_5  D_5       

 **************************************************************************

 **************************************************************************

                    xk=(   0.00000,   0.40000,   0.00000  )

     Band symmetry, C_2v (mm2)  double point group:

     e(  1 -  2) =     -8.31736  eV     2   --> G_5  D_5       
     e(  3 -  4) =     -8.29379  eV     2   --> G_5  D_5       
     e(  5 -  6) =     -7.88587  eV     2   --> G_5  D_5       
     e(  7 -  8) =     -7.82466  eV     2   --> G_5  D_5       
     e(  9 - 10) =     -7.82307  eV     2   --> G_5  D_5       
     e( 11 - 12) =     -5.39655  eV     2   --> G_5  D_5       
     e( 13 - 14) =      3.45066  eV     2   --> G_5  D_5       
     e( 15 - 16) =      5.36287  eV     2   --> G_5  D_5       
     e( 17 - 18) =      5.48762  eV     2   --> G_5  D_5       
     e( 19 - 20) =      9.03388  eV     2   --> G_5  D_5       
     e( 21 - 22) =     10.03465  eV     2   --> G_5  D_5       
     e( 23 - 24) =     12.52167  eV     2   --> G_5  D_5       
     e( 25 - 26) =     12.54238  eV     2   --> G_5  D_5       

 **************************************************************************

 **************************************************************************

                    xk=(   0.00000,   0.45000,   0.00000  )

     Band symmetry, C_2v (mm2)  double point group:

     e(  1 -  2) =     -8.32057  eV     2   --> G_5  D_5       
     e(  3 -  4) =     -8.29213  eV     2   --> G_5  D_5       
     e(  5 -  6) =     -7.88779  eV     2   --> G_5  D_5       
     e(  7 -  8) =     -7.82391  eV     2   --> G_5  D_5       
     e(  9 - 10) =     -7.82242  eV     2   --> G_5  D_5       
     e( 11 - 12) =     -5.24340  eV     2   --> G_5  D_5       
     e( 13 - 14) =      3.03697  eV     2   --> G_5  D_5       
     e( 15 - 16) =      5.16323  eV     2   --> G_5  D_5       
     e( 17 - 18) =      5.27991  eV     2   --> G_5  D_5       
     e( 19 - 20) =      8.86187  eV     2   --> G_5  D_5       
     e( 21 - 22) =     10.07043  eV     2   --> G_5  D_5       
     e( 23 - 24) =     12.92850  eV     2   --> G_5  D_5       
     e( 25 - 26) =     12.94563  eV     2   --> G_5  D_5       

 **************************************************************************

 **************************************************************************

                    xk=(   0.00000,   0.50000,   0.00000  )

     Band symmetry, C_2v (mm2)  double point group:

     e(  1 -  2) =     -8.32384  eV     2   --> G_5  D_5       
     e(  3 -  4) =     -8.29048  eV     2   --> G_5  D_5       
     e(  5 -  6) =     -7.88966  eV     2   --> G_5  D_5       
     e(  7 -  8) =     -7.82371  eV     2   --> G_5  D_5       
     e(  9 - 10) =     -7.82097  eV     2   --> G_5  D_5       
     e( 11 - 12) =     -5.07645  eV     2   --> G_5  D_5       
     e( 13 - 14) =      2.63140  eV     2   --> G_5  D_5       
     e( 15 - 16) =      4.97400  eV     2   --> G_5  D_5       
     e( 17 - 18) =      5.08386  eV     2   --> G_5  D_5       
     e( 19 - 20) =      8.69960  eV     2   --> G_5  D_5       
     e( 21 - 22) =     10.00166  eV     2   --> G_5  D_5       
     e( 23 - 24) =     13.34096  eV     2   --> G_5  D_5       
     e( 25 - 26) =     13.36398  eV     2   --> G_5  D_5       

 **************************************************************************

 **************************************************************************

                    xk=(   0.00000,   0.55000,   0.00000  )

     Band symmetry, C_2v (mm2)  double point group:

     e(  1 -  2) =     -8.32707  eV     2   --> G_5  D_5       
     e(  3 -  4) =     -8.28884  eV     2   --> G_5  D_5       
     e(  5 -  6) =     -7.89138  eV     2   --> G_5  D_5       
     e(  7 -  8) =     -7.82363  eV     2   --> G_5  D_5       
     e(  9 - 10) =     -7.81911  eV     2   --> G_5  D_5       
     e( 11 - 12) =     -4.89735  eV     2   --> G_5  D_5       
     e( 13 - 14) =      2.23561  eV     2   --> G_5  D_5       
     e( 15 - 16) =      4.79769  eV     2   --> G_5  D_5       
     e( 17 - 18) =      4.90182  eV     2   --> G_5  D_5       
     e( 19 - 20) =      8.55339  eV     2   --> G_5  D_5       
     e( 21 - 22) =      9.85333  eV     2   --> G_5  D_5       
     e( 23 - 24) =     13.75890  eV     2   --> G_5  D_5       
     e( 25 - 26) =     13.79218  eV     2   --> G_5  D_5       

 **************************************************************************

 **************************************************************************

                    xk=(   0.00000,   0.60000,   0.00000  )

     Band symmetry, C_2v (mm2)  double point group:

     e(  1 -  2) =     -8.33020  eV     2   --> G_5  D_5       
     e(  3 -  4) =     -8.28729  eV     2   --> G_5  D_5       
     e(  5 -  6) =     -7.89294  eV     2   --> G_5  D_5       
     e(  7 -  8) =     -7.82359  eV     2   --> G_5  D_5       
     e(  9 - 10) =     -7.81709  eV     2   --> G_5  D_5       
     e( 11 - 12) =     -4.70827  eV     2   --> G_5  D_5       
     e( 13 - 14) =      1.85178  eV     2   --> G_5  D_5       
     e( 15 - 16) =      4.63611  eV     2   --> G_5  D_5       
     e( 17 - 18) =      4.73545  eV     2   --> G_5  D_5       
     e( 19 - 20) =      8.42640  eV     2   --> G_5  D_5       
     e( 21 - 22) =      9.65796  eV     2   --> G_5  D_5       
     e( 23 - 24) =     14.18173  eV     2   --> G_5  D_5       
     e( 25 - 26) =     14.22578  eV     2   --> G_5  D_5       

 **************************************************************************

 **************************************************************************

                    xk=(   0.00000,   0.65000,   0.00000  )

     Band symmetry, C_2v (mm2)  double point group:

     e(  1 -  2) =     -8.33314  eV     2   --> G_5  D_5       
     e(  3 -  4) =     -8.28580  eV     2   --> G_5  D_5       
     e(  5 -  6) =     -7.89428  eV     2   --> G_5  D_5       
     e(  7 -  8) =     -7.82349  eV     2   --> G_5  D_5       
     e(  9 - 10) =     -7.81501  eV     2   --> G_5  D_5       
     e( 11 - 12) =     -4.51206  eV     2   --> G_5  D_5       
     e( 13 - 14) =      1.48289  eV     2   --> G_5  D_5       
     e( 15 - 16) =      4.49078  eV     2   --> G_5  D_5       
     e( 17 - 18) =      4.58617  eV     2   --> G_5  D_5       
     e( 19 - 20) =      8.32063  eV     2   --> G_5  D_5       
     e( 21 - 22) =      9.44247  eV     2   --> G_5  D_5       
     e( 23 - 24) =     14.60795  eV     2   --> G_5  D_5       
     e( 25 - 26) =     14.66174  eV     2   --> G_5  D_5       

 **************************************************************************

 **************************************************************************

                    xk=(   0.00000,   0.70000,   0.00000  )

     Band symmetry, C_2v (mm2)  double point group:

     e(  1 -  2) =     -8.33583  eV     2   --> G_5  D_5       
     e(  3 -  4) =     -8.28448  eV     2   --> G_5  D_5       
     e(  5 -  6) =     -7.89541  eV     2   --> G_5  D_5       
     e(  7 -  8) =     -7.82344  eV     2   --> G_5  D_5       
     e(  9 - 10) =     -7.81299  eV     2   --> G_5  D_5       
     e( 11 - 12) =     -4.31257  eV     2   --> G_5  D_5       
     e( 13 - 14) =      1.13298  eV     2   --> G_5  D_5       
     e( 15 - 16) =      4.36285  eV     2   --> G_5  D_5       
     e( 17 - 18) =      4.45500  eV     2   --> G_5  D_5       
     e( 19 - 20) =      8.23727  eV     2   --> G_5  D_5       
     e( 21 - 22) =      9.22495  eV     2   --> G_5  D_5       
     e( 23 - 24) =     15.03425  eV     2   --> G_5  D_5       
     e( 25 - 26) =     15.09612  eV     2   --> G_5  D_5       

 **************************************************************************

 **************************************************************************

                    xk=(   0.00000,   0.75000,   0.00000  )

     Band symmetry, C_2v (mm2)  double point group:

     e(  1 -  2) =     -8.33821  eV     2   --> G_5  D_5       
     e(  3 -  4) =     -8.28329  eV     2   --> G_5  D_5       
     e(  5 -  6) =     -7.89634  eV     2   --> G_5  D_5       
     e(  7 -  8) =     -7.82334  eV     2   --> G_5  D_5       
     e(  9 - 10) =     -7.81110  eV     2   --> G_5  D_5       
     e( 11 - 12) =     -4.11511  eV     2   --> G_5  D_5       
     e( 13 - 14) =      0.80760  eV     2   --> G_5  D_5       
     e( 15 - 16) =      4.25323  eV     2   --> G_5  D_5       
     e( 17 - 18) =      4.34276  eV     2   --> G_5  D_5       
     e( 19 - 20) =      8.17728  eV     2   --> G_5  D_5       
     e( 21 - 22) =      9.01748  eV     2   --> G_5  D_5       
     e( 23 - 24) =     15.45574  eV     2   --> G_5  D_5       
     e( 25 - 26) =     15.52372  eV     2   --> G_5  D_5       

 **************************************************************************

 **************************************************************************

                    xk=(   0.00000,   0.80000,   0.00000  )

     Band symmetry, C_2v (mm2)  double point group:

     e(  1 -  2) =     -8.34025  eV     2   --> G_5  D_5       
     e(  3 -  4) =     -8.28231  eV     2   --> G_5  D_5       
     e(  5 -  6) =     -7.89708  eV     2   --> G_5  D_5       
     e(  7 -  8) =     -7.82326  eV     2   --> G_5  D_5       
     e(  9 - 10) =     -7.80943  eV     2   --> G_5  D_5       
     e( 11 - 12) =     -3.92702  eV     2   --> G_5  D_5       
     e( 13 - 14) =      0.51434  eV     2   --> G_5  D_5       
     e( 15 - 16) =      4.16261  eV     2   --> G_5  D_5       
     e( 17 - 18) =      4.25010  eV     2   --> G_5  D_5       
     e( 19 - 20) =      8.14108  eV     2   --> G_5  D_5       
     e( 21 - 22) =      8.82750  eV     2   --> G_5  D_5       
     e( 23 - 24) =     15.86390  eV     2   --> G_5  D_5       
     e( 25 - 26) =     15.93562  eV     2   --> G_5  D_5       

 **************************************************************************

 **************************************************************************

                    xk=(   0.00000,   0.85000,   0.00000  )

     Band symmetry, C_2v (mm2)  double point group:

     e(  1 -  2) =     -8.34184  eV     2   --> G_5  D_5       
     e(  3 -  4) =     -8.28154  eV     2   --> G_5  D_5       
     e(  5 -  6) =     -7.89761  eV     2   --> G_5  D_5       
     e(  7 -  8) =     -7.82320  eV     2   --> G_5  D_5       
     e(  9 - 10) =     -7.80806  eV     2   --> G_5  D_5       
     e( 11 - 12) =     -3.75827  eV     2   --> G_5  D_5       
     e( 13 - 14) =      0.26347  eV     2   --> G_5  D_5       
     e( 15 - 16) =      4.09159  eV     2   --> G_5  D_5       
     e( 17 - 18) =      4.17755  eV     2   --> G_5  D_5       
     e( 19 - 20) =      8.12869  eV     2   --> G_5  D_5       
     e( 21 - 22) =      8.66012  eV     2   --> G_5  D_5       
     e( 23 - 24) =     16.24451  eV     2   --> G_5  D_5       
     e( 25 - 26) =     16.31680  eV     2   --> G_5  D_5       

 **************************************************************************

 **************************************************************************

                    xk=(   0.00000,   0.90000,   0.00000  )

     Band symmetry, C_2v (mm2)  double point group:

     e(  1 -  2) =     -8.34303  eV     2   --> G_5  D_5       
     e(  3 -  4) =     -8.28099  eV     2   --> G_5  D_5       
     e(  5 -  6) =     -7.89800  eV     2   --> G_5  D_5       
     e(  7 -  8) =     -7.82315  eV     2   --> G_5  D_5       
     e(  9 - 10) =     -7.80705  eV     2   --> G_5  D_5       
     e( 11 - 12) =     -3.62160  eV     2   --> G_5  D_5       
     e( 13 - 14) =      0.06793  eV     2   --> G_5  D_5       
     e( 15 - 16) =      4.04057  eV     2   --> G_5  D_5       
     e( 17 - 18) =      4.12546  eV     2   --> G_5  D_5       
     e( 19 - 20) =      8.13854  eV     2   --> G_5  D_5       
     e( 21 - 22) =      8.52000  eV     2   --> G_5  D_5       
     e( 23 - 24) =     16.57256  eV     2   --> G_5  D_5       
     e( 25 - 26) =     16.64117  eV     2   --> G_5  D_5       

 **************************************************************************

 **************************************************************************

                    xk=(   0.00000,   0.95000,   0.00000  )

     Band symmetry, C_2v (mm2)  double point group:

     e(  1 -  2) =     -8.34372  eV     2   --> G_5  D_5       
     e(  3 -  4) =     -8.28061  eV     2   --> G_5  D_5       
     e(  5 -  6) =     -7.89820  eV     2   --> G_5  D_5       
     e(  7 -  8) =     -7.82307  eV     2   --> G_5  D_5       
     e(  9 - 10) =     -7.80640  eV     2   --> G_5  D_5       
     e( 11 - 12) =     -3.53129  eV     2   --> G_5  D_5       
     e( 13 - 14) =     -0.05776  eV     2   --> G_5  D_5       
     e( 15 - 16) =      4.00986  eV     2   --> G_5  D_5       
     e( 17 - 18) =      4.09412  eV     2   --> G_5  D_5       
     e( 19 - 20) =      8.16469  eV     2   --> G_5  D_5       
     e( 21 - 22) =      8.41523  eV     2   --> G_5  D_5       
     e( 23 - 24) =     16.80680  eV     2   --> G_5  D_5       
     e( 25 - 26) =     16.86787  eV     2   --> G_5  D_5       

 **************************************************************************

 **************************************************************************

                    xk=(   0.00000,   1.00000,   0.00000  )

     double point group D_2d (-42m)
     there are  7 classes and  2 irreducible representations
     the character table:

       E     -E    2S4   -2S4  C2    2C2'  2s_d 
                               -C2   -2C2' -2s_d
G_6    2.00 -2.00  1.41 -1.41  0.00  0.00  0.00
G_7    2.00 -2.00 -1.41  1.41  0.00  0.00  0.00

     the symmetry operations in each class and the name of the first element:

     E             1
                                                                 
     -E           -1
                                                                 
     2S4           7    8
                                                                 
     -2S4         -7   -8
                                                                 
     C2   -C2      3   -3
                                                                 
     2C2' -2C2'    2   -2    4   -4
                                                                 
     2s_d -2s_d    5    6   -5   -6
                                                                 

     Band symmetry, D_2d (-42m) double point group:

     e(  1 -  2) =     -8.34396  eV     2   --> G_7  X_7  W_7  
     e(  3 -  4) =     -8.28049  eV     2   --> G_6  X_6  W_6  
     e(  5 -  6) =     -7.89827  eV     2   --> G_7  X_7  W_7  
     e(  7 -  8) =     -7.82305  eV     2   --> G_6  X_6  W_6  
     e(  9 - 10) =     -7.80618  eV     2   --> G_7  X_7  W_7  
     e( 11 - 12) =     -3.49955  eV     2   --> G_7  X_7  W_7  
     e( 13 - 14) =     -0.10132  eV     2   --> G_6  X_6  W_6  
     e( 15 - 16) =      3.99960  eV     2   --> G_6  X_6  W_6  
     e( 17 - 18) =      4.08365  eV     2   --> G_7  X_7  W_7  
     e( 19 - 20) =      8.18308  eV     2   --> G_7  X_7  W_7  
     e( 21 - 22) =      8.37046  eV     2   --> G_6  X_6  W_6  
     e( 23 - 24) =     16.89435  eV     2   --> G_6  X_6  W_6  
     e( 25 - 26) =     16.95059  eV     2   --> G_7  X_7  W_7  

 **************************************************************************

 **************************************************************************

                    xk=(   0.00000,   0.98750,   0.03750  )

     double point group C_1 (1)    
     there are  2 classes and  1 irreducible representations
     the character table:

       E     -E   
                  
G_2    1.00 -1.00

     the symmetry operations in each class and the name of the first element:

     E             1
                                                                 
     -E           -1
                                                                 

     Band symmetry, C_1 (1)     double point group:

     e(  1 -  1) =     -8.34670  eV     1   --> G_2            
     e(  2 -  2) =     -8.34116  eV     1   --> G_2            
     e(  3 -  3) =     -8.28106  eV     1   --> G_2            
     e(  4 -  4) =     -8.27990  eV     1   --> G_2            
     e(  5 -  5) =     -7.90275  eV     1   --> G_2            
     e(  6 -  6) =     -7.89388  eV     1   --> G_2            
     e(  7 -  7) =     -7.82373  eV     1   --> G_2            
     e(  8 -  8) =     -7.82233  eV     1   --> G_2            
     e(  9 -  9) =     -7.80749  eV     1   --> G_2            
     e( 10 - 10) =     -7.80517  eV     1   --> G_2            
     e( 11 - 12) =     -3.50078  eV     2   -->   2 G_2            
     e( 13 - 13) =     -0.09904  eV     1   --> G_2            
     e( 14 - 14) =     -0.09362  eV     1   --> G_2            
     e( 15 - 15) =      3.97930  eV     1   --> G_2            
     e( 16 - 16) =      3.99541  eV     1   --> G_2            
     e( 17 - 17) =      4.06703  eV     1   --> G_2            
     e( 18 - 18) =      4.07500  eV     1   --> G_2            
     e( 19 - 19) =      8.20642  eV     1   --> G_2            
     e( 20 - 20) =      8.21321  eV     1   --> G_2            
     e( 21 - 21) =      8.39581  eV     1   --> G_2            
     e( 22 - 22) =      8.40882  eV     1   --> G_2            
     e( 23 - 23) =     16.79382  eV     1   --> G_2            
     e( 24 - 24) =     16.85856  eV     1   --> G_2            
     e( 25 - 25) =     16.87891  eV     1   --> G_2            
     e( 26 - 26) =     16.90633  eV     1   --> G_2            

 **************************************************************************

 **************************************************************************

                    xk=(   0.00000,   0.97500,   0.07500  )

     Band symmetry, C_1 (1)     double point group:

     e(  1 -  1) =     -8.34929  eV     1   --> G_2            
     e(  2 -  2) =     -8.33831  eV     1   --> G_2            
     e(  3 -  3) =     -8.28158  eV     1   --> G_2            
     e(  4 -  4) =     -8.27928  eV     1   --> G_2            
     e(  5 -  5) =     -7.90727  eV     1   --> G_2            
     e(  6 -  6) =     -7.88959  eV     1   --> G_2            
     e(  7 -  7) =     -7.82434  eV     1   --> G_2            
     e(  8 -  8) =     -7.82155  eV     1   --> G_2            
     e(  9 -  9) =     -7.80909  eV     1   --> G_2            
     e( 10 - 10) =     -7.80446  eV     1   --> G_2            
     e( 11 - 12) =     -3.50434  eV     2   -->   2 G_2            
     e( 13 - 13) =     -0.08709  eV     1   --> G_2            
     e( 14 - 14) =     -0.07625  eV     1   --> G_2            
     e( 15 - 15) =      3.93543  eV     1   --> G_2            
     e( 16 - 16) =      3.96806  eV     1   --> G_2            
     e( 17 - 17) =      4.02693  eV     1   --> G_2            
     e( 18 - 18) =      4.04267  eV     1   --> G_2            
     e( 19 - 19) =      8.28365  eV     1   --> G_2            
     e( 20 - 20) =      8.29577  eV     1   --> G_2            
     e( 21 - 21) =      8.48351  eV     1   --> G_2            
     e( 22 - 22) =      8.50774  eV     1   --> G_2            
     e( 23 - 23) =     16.56705  eV     1   --> G_2            
     e( 24 - 24) =     16.62591  eV     1   --> G_2            
     e( 25 - 25) =     16.72907  eV     1   --> G_2            
     e( 26 - 26) =     16.77608  eV     1   --> G_2            

 **************************************************************************

 **************************************************************************

                    xk=(   0.00000,   0.96250,   0.11250  )

     Band symmetry, C_1 (1)     double point group:

     e(  1 -  1) =     -8.35169  eV     1   --> G_2            
     e(  2 -  2) =     -8.33544  eV     1   --> G_2            
     e(  3 -  3) =     -8.28200  eV     1   --> G_2            
     e(  4 -  4) =     -8.27865  eV     1   --> G_2            
     e(  5 -  5) =     -7.91176  eV     1   --> G_2            
     e(  6 -  6) =     -7.88538  eV     1   --> G_2            
     e(  7 -  7) =     -7.82488  eV     1   --> G_2            
     e(  8 -  8) =     -7.82068  eV     1   --> G_2            
     e(  9 -  9) =     -7.81094  eV     1   --> G_2            
     e( 10 - 10) =     -7.80398  eV     1   --> G_2            
     e( 11 - 12) =     -3.50998  eV     2   -->   2 G_2            
     e( 13 - 13) =     -0.06635  eV     1   --> G_2            
     e( 14 - 14) =     -0.05012  eV     1   --> G_2            
     e( 15 - 15) =      3.87036  eV     1   --> G_2            
     e( 16 - 16) =      3.92121  eV     1   --> G_2            
     e( 17 - 17) =      3.96680  eV     1   --> G_2            
     e( 18 - 18) =      3.99294  eV     1   --> G_2            
     e( 19 - 19) =      8.41319  eV     1   --> G_2            
     e( 20 - 20) =      8.42895  eV     1   --> G_2            
     e( 21 - 21) =      8.62794  eV     1   --> G_2            
     e( 22 - 22) =      8.66113  eV     1   --> G_2            
     e( 23 - 23) =     16.20466  eV     1   --> G_2            
     e( 24 - 24) =     16.24180  eV     1   --> G_2            
     e( 25 - 25) =     16.53203  eV     1   --> G_2            
     e( 26 - 26) =     16.58839  eV     1   --> G_2            

 **************************************************************************

 **************************************************************************

                    xk=(   0.00000,   0.95000,   0.15000  )

     Band symmetry, C_1 (1)     double point group:

     e(  1 -  1) =     -8.35386  eV     1   --> G_2            
     e(  2 -  2) =     -8.33263  eV     1   --> G_2            
     e(  3 -  3) =     -8.28233  eV     1   --> G_2            
     e(  4 -  4) =     -8.27804  eV     1   --> G_2            
     e(  5 -  5) =     -7.91617  eV     1   --> G_2            
     e(  6 -  6) =     -7.88127  eV     1   --> G_2            
     e(  7 -  7) =     -7.82539  eV     1   --> G_2            
     e(  8 -  8) =     -7.81976  eV     1   --> G_2            
     e(  9 -  9) =     -7.81304  eV     1   --> G_2            
     e( 10 - 10) =     -7.80375  eV     1   --> G_2            
     e( 11 - 12) =     -3.51736  eV     2   -->   2 G_2            
     e( 13 - 13) =     -0.03830  eV     1   --> G_2            
     e( 14 - 14) =     -0.01672  eV     1   --> G_2            
     e( 15 - 15) =      3.78732  eV     1   --> G_2            
     e( 16 - 16) =      3.85676  eV     1   --> G_2            
     e( 17 - 17) =      3.89477  eV     1   --> G_2            
     e( 18 - 18) =      3.93469  eV     1   --> G_2            
     e( 19 - 19) =      8.59136  eV     1   --> G_2            
     e( 20 - 20) =      8.60976  eV     1   --> G_2            
     e( 21 - 21) =      8.82135  eV     1   --> G_2            
     e( 22 - 22) =      8.86172  eV     1   --> G_2            
     e( 23 - 23) =     15.74447  eV     1   --> G_2            
     e( 24 - 24) =     15.76496  eV     1   --> G_2            
     e( 25 - 25) =     16.30449  eV     1   --> G_2            
     e( 26 - 26) =     16.36175  eV     1   --> G_2            

 **************************************************************************

 **************************************************************************

                    xk=(   0.00000,   0.93750,   0.18750  )

     Band symmetry, C_1 (1)     double point group:

     e(  1 -  1) =     -8.35579  eV     1   --> G_2            
     e(  2 -  2) =     -8.32992  eV     1   --> G_2            
     e(  3 -  3) =     -8.28255  eV     1   --> G_2            
     e(  4 -  4) =     -8.27744  eV     1   --> G_2            
     e(  5 -  5) =     -7.92041  eV     1   --> G_2            
     e(  6 -  6) =     -7.87724  eV     1   --> G_2            
     e(  7 -  7) =     -7.82585  eV     1   --> G_2            
     e(  8 -  8) =     -7.81887  eV     1   --> G_2            
     e(  9 -  9) =     -7.81527  eV     1   --> G_2            
     e( 10 - 10) =     -7.80374  eV     1   --> G_2            
     e( 11 - 12) =     -3.52601  eV     2   -->   2 G_2            
     e( 13 - 13) =     -0.00489  eV     1   --> G_2            
     e( 14 - 14) =      0.02196  eV     1   --> G_2            
     e( 15 - 15) =      3.69049  eV     1   --> G_2            
     e( 16 - 16) =      3.76982  eV     1   --> G_2            
     e( 17 - 17) =      3.82830  eV     1   --> G_2            
     e( 18 - 18) =      3.87585  eV     1   --> G_2            
     e( 19 - 19) =      8.81324  eV     1   --> G_2            
     e( 20 - 20) =      8.83395  eV     1   --> G_2            
     e( 21 - 21) =      9.05605  eV     1   --> G_2            
     e( 22 - 22) =      9.10247  eV     1   --> G_2            
     e( 23 - 23) =     15.22905  eV     1   --> G_2            
     e( 24 - 24) =     15.23796  eV     1   --> G_2            
     e( 25 - 25) =     16.05222  eV     1   --> G_2            
     e( 26 - 26) =     16.10576  eV     1   --> G_2            

 **************************************************************************

 **************************************************************************

                    xk=(   0.00000,   0.92500,   0.22500  )

     Band symmetry, C_1 (1)     double point group:

     e(  1 -  1) =     -8.35749  eV     1   --> G_2            
     e(  2 -  2) =     -8.32741  eV     1   --> G_2            
     e(  3 -  3) =     -8.28269  eV     1   --> G_2            
     e(  4 -  4) =     -8.27691  eV     1   --> G_2            
     e(  5 -  5) =     -7.92442  eV     1   --> G_2            
     e(  6 -  6) =     -7.87334  eV     1   --> G_2            
     e(  7 -  7) =     -7.82632  eV     1   --> G_2            
     e(  8 -  8) =     -7.81890  eV     1   --> G_2            
     e(  9 -  9) =     -7.81674  eV     1   --> G_2            
     e( 10 - 10) =     -7.80393  eV     1   --> G_2            
     e( 11 - 12) =     -3.53553  eV     2   -->   2 G_2            
     e( 13 - 13) =      0.03153  eV     1   --> G_2            
     e( 14 - 14) =      0.06352  eV     1   --> G_2            
     e( 15 - 15) =      3.58468  eV     1   --> G_2            
     e( 16 - 16) =      3.66634  eV     1   --> G_2            
     e( 17 - 17) =      3.77422  eV     1   --> G_2            
     e( 18 - 18) =      3.82297  eV     1   --> G_2            
     e( 19 - 19) =      9.07334  eV     1   --> G_2            
     e( 20 - 20) =      9.09651  eV     1   --> G_2            
     e( 21 - 21) =      9.32490  eV     1   --> G_2            
     e( 22 - 22) =      9.37672  eV     1   --> G_2            
     e( 23 - 23) =     14.68491  eV     1   --> G_2            
     e( 24 - 24) =     14.68808  eV     1   --> G_2            
     e( 25 - 25) =     15.78001  eV     1   --> G_2            
     e( 26 - 26) =     15.82748  eV     1   --> G_2            

 **************************************************************************

 **************************************************************************

                    xk=(   0.00000,   0.91250,   0.26250  )

     Band symmetry, C_1 (1)     double point group:

     e(  1 -  1) =     -8.35893  eV     1   --> G_2            
     e(  2 -  2) =     -8.32515  eV     1   --> G_2            
     e(  3 -  3) =     -8.28273  eV     1   --> G_2            
     e(  4 -  4) =     -8.27643  eV     1   --> G_2            
     e(  5 -  5) =     -7.92811  eV     1   --> G_2            
     e(  6 -  6) =     -7.86954  eV     1   --> G_2            
     e(  7 -  7) =     -7.82686  eV     1   --> G_2            
     e(  8 -  8) =     -7.82111  eV     1   --> G_2            
     e(  9 -  9) =     -7.81608  eV     1   --> G_2            
     e( 10 - 10) =     -7.80428  eV     1   --> G_2            
     e( 11 - 11) =     -3.54534  eV     1   --> G_2            
     e( 12 - 12) =     -3.54516  eV     1   --> G_2            
     e( 13 - 13) =      0.06837  eV     1   --> G_2            
     e( 14 - 14) =      0.10529  eV     1   --> G_2            
     e( 15 - 15) =      3.47462  eV     1   --> G_2            
     e( 16 - 16) =      3.55616  eV     1   --> G_2            
     e( 17 - 17) =      3.73399  eV     1   --> G_2            
     e( 18 - 18) =      3.78177  eV     1   --> G_2            
     e( 19 - 19) =      9.36623  eV     1   --> G_2            
     e( 20 - 20) =      9.39237  eV     1   --> G_2            
     e( 21 - 21) =      9.62151  eV     1   --> G_2            
     e( 22 - 22) =      9.67829  eV     1   --> G_2            
     e( 23 - 23) =     14.12626  eV     1   --> G_2            
     e( 24 - 24) =     14.13526  eV     1   --> G_2            
     e( 25 - 25) =     15.49305  eV     1   --> G_2            
     e( 26 - 26) =     15.53339  eV     1   --> G_2            

 **************************************************************************

 **************************************************************************

                    xk=(   0.00000,   0.90000,   0.30000  )

     Band symmetry, C_1 (1)     double point group:

     e(  1 -  1) =     -8.36012  eV     1   --> G_2            
     e(  2 -  2) =     -8.32319  eV     1   --> G_2            
     e(  3 -  3) =     -8.28272  eV     1   --> G_2            
     e(  4 -  4) =     -8.27602  eV     1   --> G_2            
     e(  5 -  5) =     -7.93139  eV     1   --> G_2            
     e(  6 -  6) =     -7.86586  eV     1   --> G_2            
     e(  7 -  7) =     -7.82767  eV     1   --> G_2            
     e(  8 -  8) =     -7.82361  eV     1   --> G_2            
     e(  9 -  9) =     -7.81497  eV     1   --> G_2            
     e( 10 - 10) =     -7.80478  eV     1   --> G_2            
     e( 11 - 11) =     -3.55491  eV     1   --> G_2            
     e( 12 - 12) =     -3.55461  eV     1   --> G_2            
     e( 13 - 13) =      0.10302  eV     1   --> G_2            
     e( 14 - 14) =      0.14455  eV     1   --> G_2            
     e( 15 - 15) =      3.36450  eV     1   --> G_2            
     e( 16 - 16) =      3.44502  eV     1   --> G_2            
     e( 17 - 17) =      3.71121  eV     1   --> G_2            
     e( 18 - 18) =      3.75714  eV     1   --> G_2            
     e( 19 - 19) =      9.68627  eV     1   --> G_2            
     e( 20 - 20) =      9.71656  eV     1   --> G_2            
     e( 21 - 21) =      9.93983  eV     1   --> G_2            
     e( 22 - 22) =     10.00107  eV     1   --> G_2            
     e( 23 - 23) =     13.56976  eV     1   --> G_2            
     e( 24 - 24) =     13.58645  eV     1   --> G_2            
     e( 25 - 25) =     15.19671  eV     1   --> G_2            
     e( 26 - 26) =     15.22969  eV     1   --> G_2            

 **************************************************************************

 **************************************************************************

                    xk=(   0.00000,   0.88750,   0.33750  )

     Band symmetry, C_1 (1)     double point group:

     e(  1 -  1) =     -8.36104  eV     1   --> G_2            
     e(  2 -  2) =     -8.32154  eV     1   --> G_2            
     e(  3 -  3) =     -8.28267  eV     1   --> G_2            
     e(  4 -  4) =     -8.27564  eV     1   --> G_2            
     e(  5 -  5) =     -7.93415  eV     1   --> G_2            
     e(  6 -  6) =     -7.86232  eV     1   --> G_2            
     e(  7 -  7) =     -7.82930  eV     1   --> G_2            
     e(  8 -  8) =     -7.82542  eV     1   --> G_2            
     e(  9 -  9) =     -7.81377  eV     1   --> G_2            
     e( 10 - 10) =     -7.80536  eV     1   --> G_2            
     e( 11 - 11) =     -3.56374  eV     1   --> G_2            
     e( 12 - 12) =     -3.56332  eV     1   --> G_2            
     e( 13 - 13) =      0.13306  eV     1   --> G_2            
     e( 14 - 14) =      0.17876  eV     1   --> G_2            
     e( 15 - 15) =      3.25782  eV     1   --> G_2            
     e( 16 - 16) =      3.33690  eV     1   --> G_2            
     e( 17 - 17) =      3.70924  eV     1   --> G_2            
     e( 18 - 18) =      3.75284  eV     1   --> G_2            
     e( 19 - 19) =     10.02629  eV     1   --> G_2            
     e( 20 - 20) =     10.06381  eV     1   --> G_2            
     e( 21 - 21) =     10.27375  eV     1   --> G_2            
     e( 22 - 22) =     10.33789  eV     1   --> G_2            
     e( 23 - 23) =     13.02663  eV     1   --> G_2            
     e( 24 - 24) =     13.05297  eV     1   --> G_2            
     e( 25 - 25) =     14.89654  eV     1   --> G_2            
     e( 26 - 26) =     14.92258  eV     1   --> G_2            

 **************************************************************************

 **************************************************************************

                    xk=(   0.00000,   0.87500,   0.37500  )

     Band symmetry, C_1 (1)     double point group:

     e(  1 -  1) =     -8.36171  eV     1   --> G_2            
     e(  2 -  2) =     -8.32025  eV     1   --> G_2            
     e(  3 -  3) =     -8.28266  eV     1   --> G_2            
     e(  4 -  4) =     -8.27531  eV     1   --> G_2            
     e(  5 -  5) =     -7.93636  eV     1   --> G_2            
     e(  6 -  6) =     -7.85900  eV     1   --> G_2            
     e(  7 -  7) =     -7.83189  eV     1   --> G_2            
     e(  8 -  8) =     -7.82631  eV     1   --> G_2            
     e(  9 -  9) =     -7.81257  eV     1   --> G_2            
     e( 10 - 10) =     -7.80603  eV     1   --> G_2            
     e( 11 - 11) =     -3.57141  eV     1   --> G_2            
     e( 12 - 12) =     -3.57087  eV     1   --> G_2            
     e( 13 - 13) =      0.15655  eV     1   --> G_2            
     e( 14 - 14) =      0.20585  eV     1   --> G_2            
     e( 15 - 15) =      3.15741  eV     1   --> G_2            
     e( 16 - 16) =      3.23484  eV     1   --> G_2            
     e( 17 - 17) =      3.73031  eV     1   --> G_2            
     e( 18 - 18) =      3.77129  eV     1   --> G_2            
     e( 19 - 19) =     10.37183  eV     1   --> G_2            
     e( 20 - 20) =     10.42603  eV     1   --> G_2            
     e( 21 - 21) =     10.61657  eV     1   --> G_2            
     e( 22 - 22) =     10.67780  eV     1   --> G_2            
     e( 23 - 23) =     12.51196  eV     1   --> G_2            
     e( 24 - 24) =     12.55250  eV     1   --> G_2            
     e( 25 - 25) =     14.59783  eV     1   --> G_2            
     e( 26 - 26) =     14.61876  eV     1   --> G_2            

 **************************************************************************

 **************************************************************************

                    xk=(   0.00000,   0.86250,   0.41250  )

     Band symmetry, C_1 (1)     double point group:

     e(  1 -  1) =     -8.36214  eV     1   --> G_2            
     e(  2 -  2) =     -8.31933  eV     1   --> G_2            
     e(  3 -  3) =     -8.28272  eV     1   --> G_2            
     e(  4 -  4) =     -8.27500  eV     1   --> G_2            
     e(  5 -  5) =     -7.93794  eV     1   --> G_2            
     e(  6 -  6) =     -7.85601  eV     1   --> G_2            
     e(  7 -  7) =     -7.83476  eV     1   --> G_2            
     e(  8 -  8) =     -7.82678  eV     1   --> G_2            
     e(  9 -  9) =     -7.81139  eV     1   --> G_2            
     e( 10 - 10) =     -7.80674  eV     1   --> G_2            
     e( 11 - 11) =     -3.57753  eV     1   --> G_2            
     e( 12 - 12) =     -3.57690  eV     1   --> G_2            
     e( 13 - 13) =      0.17223  eV     1   --> G_2            
     e( 14 - 14) =      0.22444  eV     1   --> G_2            
     e( 15 - 15) =      3.06557  eV     1   --> G_2            
     e( 16 - 16) =      3.14122  eV     1   --> G_2            
     e( 17 - 17) =      3.77517  eV     1   --> G_2            
     e( 18 - 18) =      3.81334  eV     1   --> G_2            
     e( 19 - 19) =     10.67661  eV     1   --> G_2            
     e( 20 - 20) =     10.77530  eV     1   --> G_2            
     e( 21 - 21) =     10.96333  eV     1   --> G_2            
     e( 22 - 22) =     11.00306  eV     1   --> G_2            
     e( 23 - 23) =     12.06735  eV     1   --> G_2            
     e( 24 - 24) =     12.12977  eV     1   --> G_2            
     e( 25 - 25) =     14.30633  eV     1   --> G_2            
     e( 26 - 26) =     14.32721  eV     1   --> G_2            

 **************************************************************************

 **************************************************************************

                    xk=(   0.00000,   0.85000,   0.45000  )

     Band symmetry, C_1 (1)     double point group:

     e(  1 -  1) =     -8.36235  eV     1   --> G_2            
     e(  2 -  2) =     -8.31877  eV     1   --> G_2            
     e(  3 -  3) =     -8.28288  eV     1   --> G_2            
     e(  4 -  4) =     -8.27469  eV     1   --> G_2            
     e(  5 -  5) =     -7.93888  eV     1   --> G_2            
     e(  6 -  6) =     -7.85364  eV     1   --> G_2            
     e(  7 -  7) =     -7.83730  eV     1   --> G_2            
     e(  8 -  8) =     -7.82709  eV     1   --> G_2            
     e(  9 -  9) =     -7.81031  eV     1   --> G_2            
     e( 10 - 10) =     -7.80742  eV     1   --> G_2            
     e( 11 - 11) =     -3.58181  eV     1   --> G_2            
     e( 12 - 12) =     -3.58111  eV     1   --> G_2            
     e( 13 - 13) =      0.17963  eV     1   --> G_2            
     e( 14 - 14) =      0.23397  eV     1   --> G_2            
     e( 15 - 15) =      2.98413  eV     1   --> G_2            
     e( 16 - 16) =      3.05791  eV     1   --> G_2            
     e( 17 - 17) =      3.84291  eV     1   --> G_2            
     e( 18 - 18) =      3.87810  eV     1   --> G_2            
     e( 19 - 19) =     10.79167  eV     1   --> G_2            
     e( 20 - 20) =     10.92562  eV     1   --> G_2            
     e( 21 - 21) =     11.31113  eV     1   --> G_2            
     e( 22 - 22) =     11.34530  eV     1   --> G_2            
     e( 23 - 23) =     11.84587  eV     1   --> G_2            
     e( 24 - 24) =     11.91915  eV     1   --> G_2            
     e( 25 - 25) =     14.03134  eV     1   --> G_2            
     e( 26 - 26) =     14.06014  eV     1   --> G_2            

 **************************************************************************

 **************************************************************************

                    xk=(   0.00000,   0.83750,   0.48750  )

[...]
     e( 26 - 26) =     12.40018  eV     1   --> G_4            

 **************************************************************************

 **************************************************************************

                    xk=(   0.00000,   0.33750,   0.33750  )

     Band symmetry, C_s (m)     double point group:

     e(  1 -  1) =     -8.32675  eV     1   --> G_3            
     e(  2 -  2) =     -8.31264  eV     1   --> G_4            
     e(  3 -  3) =     -8.29361  eV     1   --> G_3            
     e(  4 -  4) =     -8.29344  eV     1   --> G_4            
     e(  5 -  5) =     -7.90158  eV     1   --> G_4            
     e(  6 -  6) =     -7.87056  eV     1   --> G_3            
     e(  7 -  7) =     -7.83980  eV     1   --> G_3            
     e(  8 -  8) =     -7.83127  eV     1   --> G_4            
     e(  9 -  9) =     -7.81714  eV     1   --> G_3            
     e( 10 - 10) =     -7.81314  eV     1   --> G_4            
     e( 11 - 11) =     -5.17011  eV     1   --> G_3            
     e( 12 - 12) =     -5.16602  eV     1   --> G_4            
     e( 13 - 13) =      2.54066  eV     1   --> G_3            
     e( 14 - 14) =      2.57310  eV     1   --> G_4            
     e( 15 - 15) =      4.55629  eV     1   --> G_4            
     e( 16 - 16) =      4.61389  eV     1   --> G_3            
     e( 17 - 18) =      6.18392  eV     2   --> G_3            
     e( 17 - 18) =      6.18392  eV     2   --> G_4            
     e( 19 - 19) =      9.29562  eV     1   --> G_3            
     e( 20 - 20) =      9.35656  eV     1   --> G_4            
     e( 21 - 21) =     11.21995  eV     1   --> G_4            
     e( 22 - 22) =     11.27319  eV     1   --> G_3            
     e( 23 - 23) =     11.33763  eV     1   --> G_3            
     e( 24 - 24) =     11.33932  eV     1   --> G_4            
     e( 25 - 25) =     12.38547  eV     1   --> G_3            
     e( 26 - 26) =     12.40987  eV     1   --> G_4            

 **************************************************************************

 **************************************************************************

                    xk=(   0.00000,   0.30000,   0.30000  )

     Band symmetry, C_s (m)     double point group:

     e(  1 -  1) =     -8.32177  eV     1   --> G_3            
     e(  2 -  2) =     -8.31141  eV     1   --> G_4            
     e(  3 -  3) =     -8.29571  eV     1   --> G_4            
     e(  4 -  4) =     -8.29461  eV     1   --> G_3            
     e(  5 -  5) =     -7.89655  eV     1   --> G_4            
     e(  6 -  6) =     -7.87276  eV     1   --> G_3            
     e(  7 -  7) =     -7.83761  eV     1   --> G_3            
     e(  8 -  8) =     -7.83081  eV     1   --> G_4            
     e(  9 -  9) =     -7.81890  eV     1   --> G_3            
     e( 10 - 10) =     -7.81437  eV     1   --> G_4            
     e( 11 - 11) =     -5.33416  eV     1   --> G_3            
     e( 12 - 12) =     -5.33076  eV     1   --> G_4            
     e( 13 - 13) =      2.96501  eV     1   --> G_3            
     e( 14 - 14) =      2.99473  eV     1   --> G_4            
     e( 15 - 15) =      4.88381  eV     1   --> G_4            
     e( 16 - 16) =      4.94019  eV     1   --> G_3            
     e( 17 - 17) =      6.30886  eV     1   --> G_3            
     e( 18 - 18) =      6.30939  eV     1   --> G_4            
     e( 19 - 19) =      9.17960  eV     1   --> G_3            
     e( 20 - 20) =      9.24130  eV     1   --> G_4            
     e( 21 - 21) =     11.00770  eV     1   --> G_4            
     e( 22 - 22) =     11.06175  eV     1   --> G_3            
     e( 23 - 23) =     11.15150  eV     1   --> G_3            
     e( 24 - 24) =     11.15434  eV     1   --> G_4            
     e( 25 - 25) =     12.34193  eV     1   --> G_3            
     e( 26 - 26) =     12.36330  eV     1   --> G_4            

 **************************************************************************

 **************************************************************************

                    xk=(   0.00000,   0.26250,   0.26250  )

     Band symmetry, C_s (m)     double point group:

     e(  1 -  1) =     -8.31711  eV     1   --> G_3            
     e(  2 -  2) =     -8.31011  eV     1   --> G_4            
     e(  3 -  3) =     -8.29772  eV     1   --> G_4            
     e(  4 -  4) =     -8.29565  eV     1   --> G_3            
     e(  5 -  5) =     -7.89187  eV     1   --> G_4            
     e(  6 -  6) =     -7.87461  eV     1   --> G_3            
     e(  7 -  7) =     -7.83536  eV     1   --> G_3            
     e(  8 -  8) =     -7.83014  eV     1   --> G_4            
     e(  9 -  9) =     -7.82057  eV     1   --> G_3            
     e( 10 - 10) =     -7.81569  eV     1   --> G_4            
     e( 11 - 11) =     -5.48389  eV     1   --> G_3            
     e( 12 - 12) =     -5.48124  eV     1   --> G_4            
     e( 13 - 13) =      3.41447  eV     1   --> G_3            
     e( 14 - 14) =      3.44164  eV     1   --> G_4            
     e( 15 - 15) =      5.21341  eV     1   --> G_4            
     e( 16 - 16) =      5.26846  eV     1   --> G_3            
     e( 17 - 17) =      6.41749  eV     1   --> G_3            
     e( 18 - 18) =      6.41876  eV     1   --> G_4            
     e( 19 - 19) =      9.04514  eV     1   --> G_3            
     e( 20 - 20) =      9.10501  eV     1   --> G_4            
     e( 21 - 21) =     10.82693  eV     1   --> G_4            
     e( 22 - 22) =     10.87955  eV     1   --> G_3            
     e( 23 - 23) =     10.98832  eV     1   --> G_3            
     e( 24 - 24) =     10.99218  eV     1   --> G_4            
     e( 25 - 25) =     12.19950  eV     1   --> G_3            
     e( 26 - 26) =     12.21758  eV     1   --> G_4            

 **************************************************************************

 **************************************************************************

                    xk=(   0.00000,   0.22500,   0.22500  )

     Band symmetry, C_s (m)     double point group:

     e(  1 -  1) =     -8.31288  eV     1   --> G_3            
     e(  2 -  2) =     -8.30872  eV     1   --> G_4            
     e(  3 -  3) =     -8.29938  eV     1   --> G_4            
     e(  4 -  4) =     -8.29669  eV     1   --> G_3            
     e(  5 -  5) =     -7.88763  eV     1   --> G_4            
     e(  6 -  6) =     -7.87597  eV     1   --> G_3            
     e(  7 -  7) =     -7.83310  eV     1   --> G_3            
     e(  8 -  8) =     -7.82924  eV     1   --> G_4            
     e(  9 -  9) =     -7.82202  eV     1   --> G_3            
     e( 10 - 10) =     -7.81706  eV     1   --> G_4            
     e( 11 - 11) =     -5.61732  eV     1   --> G_3            
     e( 12 - 12) =     -5.61541  eV     1   --> G_4            
     e( 13 - 13) =      3.88634  eV     1   --> G_3            
     e( 14 - 14) =      3.91109  eV     1   --> G_4            
     e( 15 - 15) =      5.53632  eV     1   --> G_4            
     e( 16 - 16) =      5.58971  eV     1   --> G_3            
     e( 17 - 17) =      6.50968  eV     1   --> G_3            
     e( 18 - 18) =      6.51193  eV     1   --> G_4            
     e( 19 - 19) =      8.89228  eV     1   --> G_3            
     e( 20 - 20) =      8.94751  eV     1   --> G_4            
     e( 21 - 21) =     10.67919  eV     1   --> G_4            
     e( 22 - 22) =     10.72860  eV     1   --> G_3            
     e( 23 - 23) =     10.84802  eV     1   --> G_3            
     e( 24 - 24) =     10.85284  eV     1   --> G_4            
     e( 25 - 25) =     11.94503  eV     1   --> G_3            
     e( 26 - 26) =     11.96046  eV     1   --> G_4            

 **************************************************************************

 **************************************************************************

                    xk=(   0.00000,   0.18750,   0.18750  )

     Band symmetry, C_s (m)     double point group:

     e(  1 -  1) =     -8.30923  eV     1   --> G_3            
     e(  2 -  2) =     -8.30728  eV     1   --> G_4            
     e(  3 -  3) =     -8.30067  eV     1   --> G_4            
     e(  4 -  4) =     -8.29771  eV     1   --> G_3            
     e(  5 -  5) =     -7.88401  eV     1   --> G_4            
     e(  6 -  6) =     -7.87684  eV     1   --> G_3            
     e(  7 -  7) =     -7.83087  eV     1   --> G_3            
     e(  8 -  8) =     -7.82812  eV     1   --> G_4            
     e(  9 -  9) =     -7.82319  eV     1   --> G_3            
     e( 10 - 10) =     -7.81845  eV     1   --> G_4            
     e( 11 - 11) =     -5.73285  eV     1   --> G_3            
     e( 12 - 12) =     -5.73161  eV     1   --> G_4            
     e( 13 - 13) =      4.37721  eV     1   --> G_3            
     e( 14 - 14) =      4.39959  eV     1   --> G_4            
     e( 15 - 15) =      5.84163  eV     1   --> G_4            
     e( 16 - 16) =      5.89259  eV     1   --> G_3            
     e( 17 - 17) =      6.58657  eV     1   --> G_3            
     e( 18 - 18) =      6.58999  eV     1   --> G_4            
     e( 19 - 19) =      8.71518  eV     1   --> G_3            
     e( 20 - 20) =      8.76282  eV     1   --> G_4            
     e( 21 - 21) =     10.56485  eV     1   --> G_4            
     e( 22 - 22) =     10.60921  eV     1   --> G_3            
     e( 23 - 23) =     10.73098  eV     1   --> G_3            
     e( 24 - 24) =     10.73658  eV     1   --> G_4            
     e( 25 - 25) =     11.60908  eV     1   --> G_3            
     e( 26 - 26) =     11.62308  eV     1   --> G_4            

 **************************************************************************

 **************************************************************************

                    xk=(   0.00000,   0.15000,   0.15000  )

     Band symmetry, C_s (m)     double point group:

     e(  1 -  1) =     -8.30632  eV     1   --> G_3            
     e(  2 -  2) =     -8.30588  eV     1   --> G_4            
     e(  3 -  3) =     -8.30160  eV     1   --> G_4            
     e(  4 -  4) =     -8.29873  eV     1   --> G_3            
     e(  5 -  5) =     -7.88114  eV     1   --> G_4            
     e(  6 -  6) =     -7.87729  eV     1   --> G_3            
     e(  7 -  7) =     -7.82881  eV     1   --> G_3            
     e(  8 -  8) =     -7.82692  eV     1   --> G_4            
     e(  9 -  9) =     -7.82406  eV     1   --> G_3            
     e( 10 - 10) =     -7.81983  eV     1   --> G_4            
     e( 11 - 11) =     -5.82918  eV     1   --> G_3            
     e( 12 - 12) =     -5.82847  eV     1   --> G_4            
     e( 13 - 13) =      4.88246  eV     1   --> G_3            
     e( 14 - 14) =      4.90243  eV     1   --> G_4            
     e( 15 - 15) =      6.11598  eV     1   --> G_4            
     e( 16 - 16) =      6.16306  eV     1   --> G_3            
     e( 17 - 17) =      6.65086  eV     1   --> G_3            
     e( 18 - 18) =      6.65544  eV     1   --> G_4            
     e( 19 - 19) =      8.50187  eV     1   --> G_3            
     e( 20 - 20) =      8.53913  eV     1   --> G_4            
     e( 21 - 21) =     10.48214  eV     1   --> G_4            
     e( 22 - 22) =     10.51917  eV     1   --> G_3            
     e( 23 - 23) =     10.63838  eV     1   --> G_3            
     e( 24 - 24) =     10.64416  eV     1   --> G_4            
     e( 25 - 25) =     11.24857  eV     1   --> G_3            
     e( 26 - 26) =     11.26196  eV     1   --> G_4            

 **************************************************************************

 **************************************************************************

                    xk=(   0.00000,   0.11250,   0.11250  )

     Band symmetry, C_s (m)     double point group:

     e(  1 -  1) =     -8.30456  eV     1   --> G_4            
     e(  2 -  2) =     -8.30415  eV     1   --> G_3            
     e(  3 -  3) =     -8.30214  eV     1   --> G_4            
     e(  4 -  4) =     -8.29968  eV     1   --> G_3            
     e(  5 -  5) =     -7.87903  eV     1   --> G_4            
     e(  6 -  6) =     -7.87735  eV     1   --> G_3            
     e(  7 -  7) =     -7.82697  eV     1   --> G_3            
     e(  8 -  8) =     -7.82573  eV     1   --> G_4            
     e(  9 -  9) =     -7.82457  eV     1   --> G_3            
     e( 10 - 10) =     -7.82112  eV     1   --> G_4            
     e( 11 - 11) =     -5.90525  eV     1   --> G_3            
     e( 12 - 12) =     -5.90492  eV     1   --> G_4            
     e( 13 - 13) =      5.39503  eV     1   --> G_3            
     e( 14 - 14) =      5.41238  eV     1   --> G_4            
     e( 15 - 15) =      6.34410  eV     1   --> G_4            
     e( 16 - 16) =      6.38451  eV     1   --> G_3            
     e( 17 - 17) =      6.70788  eV     1   --> G_3            
     e( 18 - 18) =      6.71286  eV     1   --> G_4            
     e( 19 - 19) =      8.23678  eV     1   --> G_3            
     e( 20 - 20) =      8.26188  eV     1   --> G_4            
     e( 21 - 21) =     10.42521  eV     1   --> G_4            
     e( 22 - 22) =     10.45179  eV     1   --> G_3            
     e( 23 - 23) =     10.57249  eV     1   --> G_3            
     e( 24 - 24) =     10.57707  eV     1   --> G_4            
     e( 25 - 25) =     10.92346  eV     1   --> G_3            
     e( 26 - 26) =     10.93536  eV     1   --> G_4            

 **************************************************************************

 **************************************************************************

                    xk=(   0.00000,   0.07500,   0.07500  )

     Band symmetry, C_s (m)     double point group:

     e(  1 -  1) =     -8.30341  eV     1   --> G_4            
     e(  2 -  2) =     -8.30272  eV     1   --> G_3            
     e(  3 -  3) =     -8.30232  eV     1   --> G_4            
     e(  4 -  4) =     -8.30055  eV     1   --> G_3            
     e(  5 -  5) =     -7.87766  eV     1   --> G_4            
     e(  6 -  6) =     -7.87715  eV     1   --> G_3            
     e(  7 -  7) =     -7.82551  eV     1   --> G_3            
     e(  8 -  9) =     -7.82475  eV     2   --> G_3            
     e(  8 -  9) =     -7.82475  eV     2   --> G_4            
     e( 10 - 10) =     -7.82228  eV     1   --> G_4            
     e( 11 - 11) =     -5.96022  eV     1   --> G_3            
     e( 12 - 12) =     -5.96012  eV     1   --> G_4            
     e( 13 - 13) =      5.90045  eV     1   --> G_3            
     e( 14 - 14) =      5.91447  eV     1   --> G_4            
     e( 15 - 15) =      6.51342  eV     1   --> G_4            
     e( 16 - 16) =      6.54223  eV     1   --> G_3            
     e( 17 - 17) =      6.76479  eV     1   --> G_3            
     e( 18 - 18) =      6.76776  eV     1   --> G_4            
     e( 19 - 19) =      7.90952  eV     1   --> G_3            
     e( 20 - 20) =      7.92278  eV     1   --> G_4            
     e( 21 - 21) =     10.38208  eV     1   --> G_4            
     e( 22 - 22) =     10.39528  eV     1   --> G_3            
     e( 23 - 23) =     10.53435  eV     1   --> G_3            
     e( 24 - 24) =     10.53641  eV     1   --> G_4            
     e( 25 - 25) =     10.68293  eV     1   --> G_3            
     e( 26 - 26) =     10.69022  eV     1   --> G_4            

 **************************************************************************

 **************************************************************************

                    xk=(   0.00000,   0.03750,   0.03750  )

     Band symmetry, C_s (m)     double point group:

     e(  1 -  1) =     -8.30256  eV     1   --> G_4            
     e(  2 -  2) =     -8.30221  eV     1   --> G_4            
     e(  3 -  3) =     -8.30204  eV     1   --> G_3            
     e(  4 -  4) =     -8.30134  eV     1   --> G_3            
     e(  5 -  6) =     -7.87697  eV     2   --> G_3            
     e(  5 -  6) =     -7.87697  eV     2   --> G_4            
     e(  7 -  8) =     -7.82458  eV     2   -->   2 G_3            
     e(  9 -  9) =     -7.82416  eV     1   --> G_4            
     e( 10 - 10) =     -7.82329  eV     1   --> G_4            
     e( 11 - 12) =     -5.99347  eV     2   --> G_3            
     e( 11 - 12) =     -5.99347  eV     2   --> G_4            
     e( 13 - 13) =      6.34273  eV     1   --> G_3            
     e( 14 - 14) =      6.34978  eV     1   --> G_4            
     e( 15 - 15) =      6.65236  eV     1   --> G_4            
     e( 16 - 16) =      6.66397  eV     1   --> G_3            
     e( 17 - 18) =      6.81659  eV     2   --> G_3            
     e( 17 - 18) =      6.81659  eV     2   --> G_4            
     e( 19 - 19) =      7.53259  eV     1   --> G_3            
     e( 20 - 20) =      7.53651  eV     1   --> G_4            
     e( 21 - 21) =     10.34191  eV     1   --> G_4            
     e( 22 - 22) =     10.34421  eV     1   --> G_3            
     e( 23 - 23) =     10.51841  eV     1   --> G_3            
     e( 24 - 24) =     10.51867  eV     1   --> G_4            
     e( 25 - 25) =     10.55205  eV     1   --> G_3            
     e( 26 - 26) =     10.55340  eV     1   --> G_4            

 **************************************************************************

 **************************************************************************

                    xk=(   0.00000,   0.00000,   0.00000  )

     double point group T_d (-43m) 
     there are  8 classes and  3 irreducible representations
     the character table:

       E     -E    8C3   -8C3   3C2  6S4   -6S4  6s_d 
                               -3C2              -6s_d
G_6    2.00 -2.00  1.00 -1.00  0.00  1.41 -1.41  0.00
G_7    2.00 -2.00  1.00 -1.00  0.00 -1.41  1.41  0.00
G_8    4.00 -4.00 -1.00  1.00  0.00  0.00  0.00  0.00

     the symmetry operations in each class and the name of the first element:

     E             1
                                                                 
     -E           -1
                                                                 
     8C3           5    7    8    6   12    9   10   11
                                                                 
     -8C3         -5   -7   -8   -6  -12   -9  -10  -11
                                                                 
      3C2 -3C2     2   -2    3   -3    4   -4
                                                                 
     6S4          15   16   20   19   23   24
                                                                 
     -6S4        -15  -16  -20  -19  -23  -24
                                                                 
     6s_d -6s_d   13  -13  -14   14   17  -17  -18   18   21  -21   22  -22
                                                                 

     Band symmetry, T_d (-43m)  double point group:

     e(  1 -  4) =     -8.30198  eV     4   --> G_8  P_8       
     e(  5 -  6) =     -7.87679  eV     2   --> G_7  P_7       
     e(  7 - 10) =     -7.82407  eV     4   --> G_8  P_8       
     e( 11 - 12) =     -6.00461  eV     2   --> G_6  P_6       
     e( 13 - 14) =      6.50246  eV     2   --> G_7  P_7       
     e( 15 - 18) =      6.83797  eV     4   --> G_8  P_8       
     e( 19 - 20) =      7.25658  eV     2   --> G_6  P_6       
     e( 21 - 22) =     10.32099  eV     2   --> G_7  P_7       
     e( 23 - 26) =     10.51464  eV     4   --> G_8  P_8       

 **************************************************************************

     BANDS        :   2m 9.54s CPU   1m21.31s WALL


   This run was terminated on:   6:28: 1   3Jan2025            

=------------------------------------------------------------------------------=
   JOB DONE.
=------------------------------------------------------------------------------=
