
     Program BANDS v.7.0 starts on 18Dec2024 at  6:50:31 

     This program is part of the open-source Quantum ESPRESSO suite
     for quantum simulation of materials; please cite
         "P. Giannozzi et al., J. Phys.:Condens. Matter 21 395502 (2009);
         "P. Giannozzi et al., J. Phys.:Condens. Matter 29 465901 (2017);
         "P. Giannozzi et al., J. Chem. Phys. 152 154105 (2020);
          URL http://www.quantum-espresso.org", 
     in publications or presentations arising from this work. More details at
     http://www.quantum-espresso.org/quote

     Parallel version (MPI & OpenMP), running on       2 processor cores
     Number of MPI processes:                 1
     Threads/MPI process:                     2

     MPI processes distributed on     1 nodes
     189 MiB available memory on the printing compute node when the environment starts


     Reading xml data from directory:

     ./outputs/gaas.save/
     file Ga.rel-pbe-dn-kjpaw_psl.1.0.0.UPF: wavefunction(s)  4S renormalized

     IMPORTANT: XC functional enforced from input :
     Exchange-correlation= PBE
                           (   1   4   3   4   0   0   0)
     Any further DFT definition will be discarded
     Please, verify this is what you really want


     G-vector sticks info
     --------------------
     sticks:   dense  smooth     PW     G-vecs:    dense   smooth      PW
     Sum         817     817    241                15353    15353    2445

     Using Slab Decomposition


     Check: negative core charge=   -0.000002
     Reading collected, re-writing distributed wavefunctions
     high-symmetry point:  0.5000 0.2887 0.2041   x coordinate   0.0000
     high-symmetry point:  0.0000 0.0000 0.0000   x coordinate   0.6124
     high-symmetry point:  0.5000-0.2887 0.4082   x coordinate   1.3195
     high-symmetry point:  0.3750 0.2165 0.6124   x coordinate   1.8785
     high-symmetry point:  0.0000 0.0000 0.0000   x coordinate   2.6285

     Plottable bands (eV) written to file GaAs_bands_w_soc.dat.gnu
     Bands written to file GaAs_bands_w_soc.dat

 **************************************************************************

                    xk=(   0.50000,   0.28868,   0.20412  )

     double point group C_s (m)    
     there are  4 classes and  2 irreducible representations
     the character table:

       E     -E    s     -s   
                              
G_3    1.00 -1.00  0.00  0.00
G_4    1.00 -1.00  0.00  0.00

     imaginary part

       E     -E    s     -s   
                              
G_3    0.00  0.00  1.00 -1.00
G_4    0.00  0.00 -1.00  1.00

     the symmetry operations in each class and the name of the first element:

     E             1
                                                                 
     -E           -1
                                                                 
     s             2
                                                                 
     -s           -2
                                                                 

     Band symmetry, C_s (m)     double point group:

     e(  1 -  2) =     -8.84012  eV     2   --> G_3            
     e(  1 -  2) =     -8.84012  eV     2   --> G_4            
     e(  3 -  4) =     -8.81883  eV     2   --> G_3            
     e(  3 -  4) =     -8.81883  eV     2   --> G_4            
     e(  5 -  6) =     -8.40138  eV     2   --> G_3            
     e(  5 -  6) =     -8.40138  eV     2   --> G_4            
     e(  7 -  8) =     -8.36658  eV     2   --> G_3            
     e(  7 -  8) =     -8.36658  eV     2   --> G_4            
     e(  9 - 10) =     -8.33163  eV     2   --> G_3            
     e(  9 - 10) =     -8.33163  eV     2   --> G_4            
     e( 11 - 12) =     -4.63950  eV     2   --> G_3            
     e( 11 - 12) =     -4.63950  eV     2   --> G_4            
     e( 13 - 14) =     -0.25450  eV     2   --> G_3            
     e( 13 - 14) =     -0.25450  eV     2   --> G_4            
     e( 15 - 16) =      4.95340  eV     2   --> G_3            
     e( 15 - 16) =      4.95340  eV     2   --> G_4            
     e( 17 - 18) =      5.15556  eV     2   --> G_3            
     e( 17 - 18) =      5.15556  eV     2   --> G_4            
     e( 19 - 20) =      6.98539  eV     2   --> G_3            
     e( 19 - 20) =      6.98539  eV     2   --> G_4            
     e( 21 - 22) =     10.69202  eV     2   --> G_3            
     e( 21 - 22) =     10.69202  eV     2   --> G_4            
     e( 23 - 24) =     10.78633  eV     2   --> G_3            
     e( 23 - 24) =     10.78633  eV     2   --> G_4            
     e( 25 - 26) =     13.87207  eV     2   --> G_3            
     e( 25 - 26) =     13.87207  eV     2   --> G_4            

 **************************************************************************

 **************************************************************************

                    xk=(   0.47500,   0.27424,   0.19392  )

     Band symmetry, C_s (m)     double point group:

     e(  1 -  2) =     -8.83999  eV     2   --> G_3            
     e(  1 -  2) =     -8.83999  eV     2   --> G_4            
     e(  3 -  3) =     -8.81924  eV     1   --> G_4            
     e(  4 -  4) =     -8.81845  eV     1   --> G_3            
     e(  5 -  6) =     -8.40133  eV     2   --> G_3            
     e(  5 -  6) =     -8.40133  eV     2   --> G_4            
     e(  7 -  8) =     -8.36650  eV     2   --> G_3            
     e(  7 -  8) =     -8.36650  eV     2   --> G_4            
     e(  9 -  9) =     -8.33217  eV     1   --> G_3            
     e( 10 - 10) =     -8.33129  eV     1   --> G_4            
     e( 11 - 12) =     -4.65588  eV     2   --> G_3            
     e( 11 - 12) =     -4.65588  eV     2   --> G_4            
     e( 13 - 14) =     -0.22420  eV     2   --> G_3            
     e( 13 - 14) =     -0.22420  eV     2   --> G_4            
     e( 15 - 16) =      4.95808  eV     2   --> G_3            
     e( 15 - 16) =      4.95808  eV     2   --> G_4            
     e( 17 - 17) =      5.16005  eV     1   --> G_4            
     e( 18 - 18) =      5.16051  eV     1   --> G_3            
     e( 19 - 20) =      6.99034  eV     2   --> G_3            
     e( 19 - 20) =      6.99034  eV     2   --> G_4            
     e( 21 - 22) =     10.69414  eV     2   --> G_3            
     e( 21 - 22) =     10.69414  eV     2   --> G_4            
     e( 23 - 23) =     10.78875  eV     1   --> G_4            
     e( 24 - 24) =     10.78901  eV     1   --> G_3            
     e( 25 - 26) =     13.87113  eV     2   --> G_3            
     e( 25 - 26) =     13.87113  eV     2   --> G_4            

 **************************************************************************

 **************************************************************************

                    xk=(   0.45000,   0.25981,   0.18371  )

     Band symmetry, C_s (m)     double point group:

     e(  1 -  2) =     -8.83969  eV     2   --> G_3            
     e(  1 -  2) =     -8.83969  eV     2   --> G_4            
     e(  3 -  3) =     -8.81970  eV     1   --> G_4            
     e(  4 -  4) =     -8.81814  eV     1   --> G_3            
     e(  5 -  6) =     -8.40125  eV     2   --> G_3            
     e(  5 -  6) =     -8.40125  eV     2   --> G_4            
     e(  7 -  8) =     -8.36628  eV     2   --> G_3            
     e(  7 -  8) =     -8.36628  eV     2   --> G_4            
     e(  9 -  9) =     -8.33294  eV     1   --> G_3            
     e( 10 - 10) =     -8.33119  eV     1   --> G_4            
     e( 11 - 12) =     -4.70355  eV     2   --> G_3            
     e( 11 - 12) =     -4.70355  eV     2   --> G_4            
     e( 13 - 14) =     -0.13486  eV     2   --> G_3            
     e( 13 - 14) =     -0.13486  eV     2   --> G_4            
     e( 15 - 16) =      4.97209  eV     2   --> G_3            
     e( 15 - 16) =      4.97209  eV     2   --> G_4            
     e( 17 - 17) =      5.17394  eV     1   --> G_4            
     e( 18 - 18) =      5.17484  eV     1   --> G_3            
     e( 19 - 20) =      7.00503  eV     2   --> G_3            
     e( 19 - 20) =      7.00503  eV     2   --> G_4            
     e( 21 - 22) =     10.70005  eV     2   --> G_3            
     e( 21 - 22) =     10.70005  eV     2   --> G_4            
     e( 23 - 23) =     10.79584  eV     1   --> G_4            
     e( 24 - 24) =     10.79637  eV     1   --> G_3            
     e( 25 - 26) =     13.86449  eV     2   --> G_3            
     e( 25 - 26) =     13.86449  eV     2   --> G_4            

 **************************************************************************

 **************************************************************************

                    xk=(   0.42500,   0.24537,   0.17351  )

     Band symmetry, C_s (m)     double point group:

     e(  1 -  2) =     -8.83912  eV     2   --> G_3            
     e(  1 -  2) =     -8.83912  eV     2   --> G_4            
     e(  3 -  3) =     -8.82015  eV     1   --> G_4            
     e(  4 -  4) =     -8.81786  eV     1   --> G_3            
     e(  5 -  6) =     -8.40107  eV     2   --> G_3            
     e(  5 -  6) =     -8.40107  eV     2   --> G_4            
     e(  7 -  8) =     -8.36588  eV     2   --> G_3            
     e(  7 -  8) =     -8.36588  eV     2   --> G_4            
     e(  9 -  9) =     -8.33386  eV     1   --> G_3            
     e( 10 - 10) =     -8.33129  eV     1   --> G_4            
     e( 11 - 12) =     -4.77845  eV     2   --> G_3            
     e( 11 - 12) =     -4.77845  eV     2   --> G_4            
     e( 13 - 14) =      0.00937  eV     2   --> G_3            
     e( 13 - 14) =      0.00937  eV     2   --> G_4            
     e( 15 - 16) =      4.99535  eV     2   --> G_3            
     e( 15 - 16) =      4.99535  eV     2   --> G_4            
     e( 17 - 17) =      5.19716  eV     1   --> G_4            
     e( 18 - 18) =      5.19850  eV     1   --> G_3            
     e( 19 - 20) =      7.02942  eV     2   --> G_3            
     e( 19 - 20) =      7.02942  eV     2   --> G_4            
     e( 21 - 22) =     10.70874  eV     2   --> G_3            
     e( 21 - 22) =     10.70874  eV     2   --> G_4            
     e( 23 - 23) =     10.80656  eV     1   --> G_4            
     e( 24 - 24) =     10.80738  eV     1   --> G_3            
     e( 25 - 26) =     13.83979  eV     2   --> G_3            
     e( 25 - 26) =     13.83979  eV     2   --> G_4            

 **************************************************************************

 **************************************************************************

                    xk=(   0.40000,   0.23094,   0.16330  )

     Band symmetry, C_s (m)     double point group:

     e(  1 -  2) =     -8.83834  eV     2   --> G_3            
     e(  1 -  2) =     -8.83834  eV     2   --> G_4            
     e(  3 -  3) =     -8.82063  eV     1   --> G_4            
     e(  4 -  4) =     -8.81766  eV     1   --> G_3            
     e(  5 -  6) =     -8.40080  eV     2   --> G_3            
     e(  5 -  6) =     -8.40080  eV     2   --> G_4            
     e(  7 -  8) =     -8.36533  eV     2   --> G_3            
     e(  7 -  8) =     -8.36533  eV     2   --> G_4            
     e(  9 -  9) =     -8.33493  eV     1   --> G_3            
     e( 10 - 10) =     -8.33159  eV     1   --> G_4            
     e( 11 - 12) =     -4.87499  eV     2   --> G_3            
     e( 11 - 12) =     -4.87499  eV     2   --> G_4            
     e( 13 - 14) =      0.20272  eV     2   --> G_3            
     e( 13 - 14) =      0.20272  eV     2   --> G_4            
     e( 15 - 16) =      5.02764  eV     2   --> G_3            
     e( 15 - 16) =      5.02764  eV     2   --> G_4            
     e( 17 - 17) =      5.22950  eV     1   --> G_4            
     e( 18 - 18) =      5.23125  eV     1   --> G_3            
     e( 19 - 20) =      7.06319  eV     2   --> G_3            
     e( 19 - 20) =      7.06319  eV     2   --> G_4            
     e( 21 - 22) =     10.71819  eV     2   --> G_3            
     e( 21 - 22) =     10.71819  eV     2   --> G_4            
     e( 23 - 23) =     10.81889  eV     1   --> G_4            
     e( 24 - 24) =     10.82002  eV     1   --> G_3            
     e( 25 - 26) =     13.77000  eV     2   --> G_3            
     e( 25 - 26) =     13.77000  eV     2   --> G_4            

 **************************************************************************

 **************************************************************************

                    xk=(   0.37500,   0.21651,   0.15309  )

     Band symmetry, C_s (m)     double point group:

     e(  1 -  2) =     -8.83741  eV     2   --> G_3            
     e(  1 -  2) =     -8.83741  eV     2   --> G_4            
     e(  3 -  3) =     -8.82112  eV     1   --> G_4            
     e(  4 -  4) =     -8.81755  eV     1   --> G_3            
     e(  5 -  6) =     -8.40049  eV     2   --> G_3            
     e(  5 -  6) =     -8.40049  eV     2   --> G_4            
     e(  7 -  8) =     -8.36464  eV     2   --> G_3            
     e(  7 -  8) =     -8.36464  eV     2   --> G_4            
     e(  9 -  9) =     -8.33616  eV     1   --> G_3            
     e( 10 - 10) =     -8.33214  eV     1   --> G_4            
     e( 11 - 12) =     -4.98716  eV     2   --> G_3            
     e( 11 - 12) =     -4.98716  eV     2   --> G_4            
     e( 13 - 14) =      0.43888  eV     2   --> G_3            
     e( 13 - 14) =      0.43888  eV     2   --> G_4            
     e( 15 - 16) =      5.06868  eV     2   --> G_3            
     e( 15 - 16) =      5.06868  eV     2   --> G_4            
     e( 17 - 17) =      5.27071  eV     1   --> G_4            
     e( 18 - 18) =      5.27284  eV     1   --> G_3            
     e( 19 - 20) =      7.10582  eV     2   --> G_3            
     e( 19 - 20) =      7.10582  eV     2   --> G_4            
     e( 21 - 22) =     10.72568  eV     2   --> G_3            
     e( 21 - 22) =     10.72568  eV     2   --> G_4            
     e( 23 - 23) =     10.83006  eV     1   --> G_4            
     e( 24 - 24) =     10.83151  eV     1   --> G_3            
     e( 25 - 26) =     13.61573  eV     2   --> G_3            
     e( 25 - 26) =     13.61573  eV     2   --> G_4            

 **************************************************************************

 **************************************************************************

                    xk=(   0.35000,   0.20207,   0.14289  )

     Band symmetry, C_s (m)     double point group:

     e(  1 -  2) =     -8.83631  eV     2   --> G_3            
     e(  1 -  2) =     -8.83631  eV     2   --> G_4            
     e(  3 -  3) =     -8.82159  eV     1   --> G_4            
     e(  4 -  4) =     -8.81750  eV     1   --> G_3            
     e(  5 -  6) =     -8.40009  eV     2   --> G_3            
     e(  5 -  6) =     -8.40009  eV     2   --> G_4            
     e(  7 -  8) =     -8.36378  eV     2   --> G_3            
     e(  7 -  8) =     -8.36378  eV     2   --> G_4            
     e(  9 -  9) =     -8.33746  eV     1   --> G_3            
     e( 10 - 10) =     -8.33286  eV     1   --> G_4            
     e( 11 - 12) =     -5.10928  eV     2   --> G_3            
     e( 11 - 12) =     -5.10928  eV     2   --> G_4            
     e( 13 - 14) =      0.71180  eV     2   --> G_3            
     e( 13 - 14) =      0.71180  eV     2   --> G_4            
     e( 15 - 16) =      5.11815  eV     2   --> G_3            
     e( 15 - 16) =      5.11815  eV     2   --> G_4            
     e( 17 - 17) =      5.32046  eV     1   --> G_4            
     e( 18 - 18) =      5.32293  eV     1   --> G_3            
     e( 19 - 20) =      7.15665  eV     2   --> G_3            
     e( 19 - 20) =      7.15665  eV     2   --> G_4            
     e( 21 - 22) =     10.72782  eV     2   --> G_3            
     e( 21 - 22) =     10.72782  eV     2   --> G_4            
     e( 23 - 23) =     10.83656  eV     1   --> G_4            
     e( 24 - 24) =     10.83833  eV     1   --> G_3            
     e( 25 - 26) =     13.35741  eV     2   --> G_3            
     e( 25 - 26) =     13.35741  eV     2   --> G_4            

 **************************************************************************

 **************************************************************************

                    xk=(   0.32500,   0.18764,   0.13268  )

     Band symmetry, C_s (m)     double point group:

     e(  1 -  2) =     -8.83510  eV     2   --> G_3            
     e(  1 -  2) =     -8.83510  eV     2   --> G_4            
     e(  3 -  3) =     -8.82205  eV     1   --> G_4            
     e(  4 -  4) =     -8.81754  eV     1   --> G_3            
     e(  5 -  6) =     -8.39962  eV     2   --> G_3            
     e(  5 -  6) =     -8.39962  eV     2   --> G_4            
     e(  7 -  8) =     -8.36278  eV     2   --> G_3            
     e(  7 -  8) =     -8.36278  eV     2   --> G_4            
     e(  9 -  9) =     -8.33882  eV     1   --> G_3            
     e( 10 - 10) =     -8.33376  eV     1   --> G_4            
     e( 11 - 12) =     -5.23642  eV     2   --> G_3            
     e( 11 - 12) =     -5.23642  eV     2   --> G_4            
     e( 13 - 14) =      1.01607  eV     2   --> G_3            
     e( 13 - 14) =      1.01607  eV     2   --> G_4            
     e( 15 - 16) =      5.17555  eV     2   --> G_3            
     e( 15 - 16) =      5.17555  eV     2   --> G_4            
     e( 17 - 17) =      5.37828  eV     1   --> G_4            
     e( 18 - 18) =      5.38104  eV     1   --> G_3            
     e( 19 - 20) =      7.21465  eV     2   --> G_3            
     e( 19 - 20) =      7.21465  eV     2   --> G_4            
     e( 21 - 22) =     10.72060  eV     2   --> G_3            
     e( 21 - 22) =     10.72060  eV     2   --> G_4            
     e( 23 - 23) =     10.83418  eV     1   --> G_4            
     e( 24 - 24) =     10.83626  eV     1   --> G_3            
     e( 25 - 26) =     13.02019  eV     2   --> G_3            
     e( 25 - 26) =     13.02019  eV     2   --> G_4            

 **************************************************************************

 **************************************************************************

                    xk=(   0.30000,   0.17321,   0.12247  )

     Band symmetry, C_s (m)     double point group:

     e(  1 -  2) =     -8.83381  eV     2   --> G_3            
     e(  1 -  2) =     -8.83381  eV     2   --> G_4            
     e(  3 -  3) =     -8.82247  eV     1   --> G_4            
     e(  4 -  4) =     -8.81765  eV     1   --> G_3            
     e(  5 -  6) =     -8.39908  eV     2   --> G_3            
     e(  5 -  6) =     -8.39908  eV     2   --> G_4            
     e(  7 -  8) =     -8.36163  eV     2   --> G_3            
     e(  7 -  8) =     -8.36163  eV     2   --> G_4            
     e(  9 -  9) =     -8.34021  eV     1   --> G_3            
     e( 10 - 10) =     -8.33480  eV     1   --> G_4            
     e( 11 - 12) =     -5.36451  eV     2   --> G_3            
     e( 11 - 12) =     -5.36451  eV     2   --> G_4            
     e( 13 - 14) =      1.34705  eV     2   --> G_3            
     e( 13 - 14) =      1.34705  eV     2   --> G_4            
     e( 15 - 16) =      5.24028  eV     2   --> G_3            
     e( 15 - 16) =      5.24028  eV     2   --> G_4            
     e( 17 - 17) =      5.44358  eV     1   --> G_4            
     e( 18 - 18) =      5.44658  eV     1   --> G_3            
     e( 19 - 20) =      7.27826  eV     2   --> G_3            
     e( 19 - 20) =      7.27826  eV     2   --> G_4            
     e( 21 - 22) =     10.69993  eV     2   --> G_3            
     e( 21 - 22) =     10.69993  eV     2   --> G_4            
     e( 23 - 23) =     10.81854  eV     1   --> G_4            
     e( 24 - 24) =     10.82087  eV     1   --> G_3            
     e( 25 - 26) =     12.64187  eV     2   --> G_3            
     e( 25 - 26) =     12.64187  eV     2   --> G_4            

 **************************************************************************

 **************************************************************************

                    xk=(   0.27500,   0.15877,   0.11227  )

     Band symmetry, C_s (m)     double point group:

     e(  1 -  2) =     -8.83247  eV     2   --> G_3            
     e(  1 -  2) =     -8.83247  eV     2   --> G_4            
     e(  3 -  3) =     -8.82286  eV     1   --> G_4            
     e(  4 -  4) =     -8.81785  eV     1   --> G_3            
     e(  5 -  6) =     -8.39848  eV     2   --> G_3            
     e(  5 -  6) =     -8.39848  eV     2   --> G_4            
     e(  7 -  8) =     -8.36037  eV     2   --> G_3            
     e(  7 -  8) =     -8.36037  eV     2   --> G_4            
     e(  9 -  9) =     -8.34159  eV     1   --> G_3            
     e( 10 - 10) =     -8.33597  eV     1   --> G_4            
     e( 11 - 12) =     -5.49027  eV     2   --> G_3            
     e( 11 - 12) =     -5.49027  eV     2   --> G_4            
     e( 13 - 14) =      1.70075  eV     2   --> G_3            
     e( 13 - 14) =      1.70075  eV     2   --> G_4            
     e( 15 - 16) =      5.31151  eV     2   --> G_3            
     e( 15 - 16) =      5.31151  eV     2   --> G_4            
     e( 17 - 17) =      5.51555  eV     1   --> G_4            
     e( 18 - 18) =      5.51873  eV     1   --> G_3            
     e( 19 - 20) =      7.34529  eV     2   --> G_3            
     e( 19 - 20) =      7.34529  eV     2   --> G_4            
     e( 21 - 22) =     10.66213  eV     2   --> G_3            
     e( 21 - 22) =     10.66213  eV     2   --> G_4            
     e( 23 - 23) =     10.78551  eV     1   --> G_4            
     e( 24 - 24) =     10.78801  eV     1   --> G_3            
     e( 25 - 26) =     12.24816  eV     2   --> G_3            
     e( 25 - 26) =     12.24816  eV     2   --> G_4            

 **************************************************************************

 **************************************************************************

                    xk=(   0.25000,   0.14434,   0.10206  )

     Band symmetry, C_s (m)     double point group:

     e(  1 -  2) =     -8.83113  eV     2   --> G_3            
     e(  1 -  2) =     -8.83113  eV     2   --> G_4            
     e(  3 -  3) =     -8.82320  eV     1   --> G_4            
     e(  4 -  4) =     -8.81812  eV     1   --> G_3            
     e(  5 -  6) =     -8.39783  eV     2   --> G_3            
     e(  5 -  6) =     -8.39783  eV     2   --> G_4            
     e(  7 -  8) =     -8.35902  eV     2   --> G_3            
     e(  7 -  8) =     -8.35902  eV     2   --> G_4            
     e(  9 -  9) =     -8.34293  eV     1   --> G_3            
     e( 10 - 10) =     -8.33723  eV     1   --> G_4            
     e( 11 - 12) =     -5.61111  eV     2   --> G_3            
     e( 11 - 12) =     -5.61111  eV     2   --> G_4            
     e( 13 - 14) =      2.07366  eV     2   --> G_3            
     e( 13 - 14) =      2.07366  eV     2   --> G_4            
     e( 15 - 16) =      5.38828  eV     2   --> G_3            
     e( 15 - 16) =      5.38828  eV     2   --> G_4            
     e( 17 - 17) =      5.59325  eV     1   --> G_4            
     e( 18 - 18) =      5.59654  eV     1   --> G_3            
     e( 19 - 20) =      7.41242  eV     2   --> G_3            
     e( 19 - 20) =      7.41242  eV     2   --> G_4            
     e( 21 - 22) =     10.60498  eV     2   --> G_3            
     e( 21 - 22) =     10.60498  eV     2   --> G_4            
     e( 23 - 23) =     10.73243  eV     1   --> G_4            
     e( 24 - 24) =     10.73497  eV     1   --> G_3            
     e( 25 - 26) =     11.85395  eV     2   --> G_3            
     e( 25 - 26) =     11.85395  eV     2   --> G_4            

 **************************************************************************

 **************************************************************************

                    xk=(   0.22500,   0.12990,   0.09186  )

     Band symmetry, C_s (m)     double point group:

     e(  1 -  2) =     -8.82980  eV     2   --> G_3            
     e(  1 -  2) =     -8.82980  eV     2   --> G_4            
     e(  3 -  3) =     -8.82350  eV     1   --> G_4            
     e(  4 -  4) =     -8.81848  eV     1   --> G_3            
     e(  5 -  6) =     -8.39714  eV     2   --> G_3            
     e(  5 -  6) =     -8.39714  eV     2   --> G_4            
     e(  7 -  8) =     -8.35759  eV     2   --> G_3            
     e(  7 -  8) =     -8.35759  eV     2   --> G_4            
     e(  9 -  9) =     -8.34419  eV     1   --> G_3            
     e( 10 - 10) =     -8.33856  eV     1   --> G_4            
     e( 11 - 12) =     -5.72495  eV     2   --> G_3            
     e( 11 - 12) =     -5.72495  eV     2   --> G_4            
     e( 13 - 14) =      2.46274  eV     2   --> G_3            
     e( 13 - 14) =      2.46274  eV     2   --> G_4            
     e( 15 - 16) =      5.46929  eV     2   --> G_3            
     e( 15 - 16) =      5.46929  eV     2   --> G_4            
     e( 17 - 17) =      5.67537  eV     1   --> G_4            
     e( 18 - 18) =      5.67870  eV     1   --> G_3            
     e( 19 - 20) =      7.47484  eV     2   --> G_3            
     e( 19 - 20) =      7.47484  eV     2   --> G_4            
     e( 21 - 22) =     10.52818  eV     2   --> G_3            
     e( 21 - 22) =     10.52818  eV     2   --> G_4            
     e( 23 - 23) =     10.65861  eV     1   --> G_4            
     e( 24 - 24) =     10.66105  eV     1   --> G_3            
     e( 25 - 26) =     11.46957  eV     2   --> G_3            
     e( 25 - 26) =     11.46957  eV     2   --> G_4            

 **************************************************************************

 **************************************************************************

                    xk=(   0.20000,   0.11547,   0.08165  )

     Band symmetry, C_s (m)     double point group:

     e(  1 -  2) =     -8.82851  eV     2   --> G_3            
     e(  1 -  2) =     -8.82851  eV     2   --> G_4            
     e(  3 -  3) =     -8.82373  eV     1   --> G_4            
     e(  4 -  4) =     -8.81889  eV     1   --> G_3            
     e(  5 -  6) =     -8.39641  eV     2   --> G_3            
     e(  5 -  6) =     -8.39641  eV     2   --> G_4            
     e(  7 -  8) =     -8.35610  eV     2   --> G_3            
     e(  7 -  8) =     -8.35610  eV     2   --> G_4            
     e(  9 -  9) =     -8.34533  eV     1   --> G_3            
     e( 10 - 10) =     -8.33990  eV     1   --> G_4            
     e( 11 - 12) =     -5.83019  eV     2   --> G_3            
     e( 11 - 12) =     -5.83019  eV     2   --> G_4            
     e( 13 - 14) =      2.86508  eV     2   --> G_3            
     e( 13 - 14) =      2.86508  eV     2   --> G_4            
     e( 15 - 16) =      5.55303  eV     2   --> G_3            
     e( 15 - 16) =      5.55303  eV     2   --> G_4            
     e( 17 - 17) =      5.76039  eV     1   --> G_4            
     e( 18 - 18) =      5.76370  eV     1   --> G_3            
     e( 19 - 20) =      7.52539  eV     2   --> G_3            
     e( 19 - 20) =      7.52539  eV     2   --> G_4            
     e( 21 - 22) =     10.43398  eV     2   --> G_3            
     e( 21 - 22) =     10.43398  eV     2   --> G_4            
     e( 23 - 23) =     10.56617  eV     1   --> G_4            
     e( 24 - 24) =     10.56838  eV     1   --> G_3            
     e( 25 - 26) =     11.10396  eV     2   --> G_3            
     e( 25 - 26) =     11.10396  eV     2   --> G_4            

 **************************************************************************

 **************************************************************************

                    xk=(   0.17500,   0.10104,   0.07144  )

     Band symmetry, C_s (m)     double point group:

     e(  1 -  2) =     -8.82730  eV     2   --> G_3            
     e(  1 -  2) =     -8.82730  eV     2   --> G_4            
     e(  3 -  3) =     -8.82391  eV     1   --> G_4            
     e(  4 -  4) =     -8.81937  eV     1   --> G_3            
     e(  5 -  6) =     -8.39570  eV     2   --> G_3            
     e(  5 -  6) =     -8.39570  eV     2   --> G_4            
     e(  7 -  8) =     -8.35462  eV     2   --> G_3            
     e(  7 -  8) =     -8.35462  eV     2   --> G_4            
     e(  9 -  9) =     -8.34635  eV     1   --> G_3            
     e( 10 - 10) =     -8.34126  eV     1   --> G_4            
     e( 11 - 12) =     -5.92552  eV     2   --> G_3            
     e( 11 - 12) =     -5.92552  eV     2   --> G_4            
     e( 13 - 14) =      3.27789  eV     2   --> G_3            
     e( 13 - 14) =      3.27789  eV     2   --> G_4            
     e( 15 - 16) =      5.63755  eV     2   --> G_3            
     e( 15 - 16) =      5.63755  eV     2   --> G_4            
     e( 17 - 17) =      5.84634  eV     1   --> G_4            
     e( 18 - 18) =      5.84953  eV     1   --> G_3            
     e( 19 - 20) =      7.55379  eV     2   --> G_3            
     e( 19 - 20) =      7.55379  eV     2   --> G_4            
     e( 21 - 22) =     10.32645  eV     2   --> G_3            
     e( 21 - 22) =     10.32645  eV     2   --> G_4            
     e( 23 - 23) =     10.45957  eV     1   --> G_4            
     e( 24 - 24) =     10.46146  eV     1   --> G_3            
     e( 25 - 26) =     10.76741  eV     2   --> G_3            
     e( 25 - 26) =     10.76741  eV     2   --> G_4            

 **************************************************************************

 **************************************************************************

                    xk=(   0.15000,   0.08660,   0.06124  )

     Band symmetry, C_s (m)     double point group:

     e(  1 -  2) =     -8.82619  eV     2   --> G_3            
     e(  1 -  2) =     -8.82619  eV     2   --> G_4            
     e(  3 -  3) =     -8.82398  eV     1   --> G_4            
     e(  4 -  4) =     -8.81985  eV     1   --> G_3            
     e(  5 -  6) =     -8.39499  eV     2   --> G_3            
     e(  5 -  6) =     -8.39499  eV     2   --> G_4            
     e(  7 -  8) =     -8.35315  eV     2   --> G_3            
     e(  7 -  8) =     -8.35315  eV     2   --> G_4            
     e(  9 -  9) =     -8.34718  eV     1   --> G_3            
     e( 10 - 10) =     -8.34255  eV     1   --> G_4            
     e( 11 - 12) =     -6.00993  eV     2   --> G_3            
     e( 11 - 12) =     -6.00993  eV     2   --> G_4            
     e( 13 - 14) =      3.69831  eV     2   --> G_3            
     e( 13 - 14) =      3.69831  eV     2   --> G_4            
     e( 15 - 16) =      5.72069  eV     2   --> G_3            
     e( 15 - 16) =      5.72069  eV     2   --> G_4            
     e( 17 - 17) =      5.93099  eV     1   --> G_4            
     e( 18 - 18) =      5.93398  eV     1   --> G_3            
     e( 19 - 20) =      7.54622  eV     2   --> G_3            
     e( 19 - 20) =      7.54622  eV     2   --> G_4            
     e( 21 - 22) =     10.21034  eV     2   --> G_3            
     e( 21 - 22) =     10.21034  eV     2   --> G_4            
     e( 23 - 23) =     10.34527  eV     1   --> G_4            
     e( 24 - 24) =     10.34678  eV     1   --> G_3            
     e( 25 - 26) =     10.47341  eV     2   --> G_3            
     e( 25 - 26) =     10.47341  eV     2   --> G_4            

 **************************************************************************

 **************************************************************************

                    xk=(   0.12500,   0.07217,   0.05103  )

     Band symmetry, C_s (m)     double point group:

     e(  1 -  2) =     -8.82519  eV     2   --> G_3            
     e(  1 -  2) =     -8.82519  eV     2   --> G_4            
     e(  3 -  3) =     -8.82398  eV     1   --> G_4            
     e(  4 -  4) =     -8.82037  eV     1   --> G_3            
     e(  5 -  6) =     -8.39432  eV     2   --> G_3            
     e(  5 -  6) =     -8.39432  eV     2   --> G_4            
     e(  7 -  8) =     -8.35177  eV     2   --> G_3            
     e(  7 -  8) =     -8.35177  eV     2   --> G_4            
     e(  9 -  9) =     -8.34783  eV     1   --> G_3            
     e( 10 - 10) =     -8.34379  eV     1   --> G_4            
     e( 11 - 12) =     -6.08261  eV     2   --> G_3            
     e( 11 - 12) =     -6.08261  eV     2   --> G_4            
     e( 13 - 14) =      4.12320  eV     2   --> G_3            
     e( 13 - 14) =      4.12320  eV     2   --> G_4            
     e( 15 - 16) =      5.79970  eV     2   --> G_3            
     e( 15 - 16) =      5.79970  eV     2   --> G_4            
     e( 17 - 17) =      6.01142  eV     1   --> G_4            
     e( 18 - 18) =      6.01412  eV     1   --> G_3            
     e( 19 - 20) =      7.48650  eV     2   --> G_3            
     e( 19 - 20) =      7.48650  eV     2   --> G_4            
     e( 21 - 22) =     10.08744  eV     2   --> G_3            
     e( 21 - 22) =     10.08744  eV     2   --> G_4            
     e( 23 - 23) =     10.23062  eV     1   --> G_4            
     e( 24 - 24) =     10.23176  eV     1   --> G_3            
     e( 25 - 26) =     10.24027  eV     2   --> G_3            
     e( 25 - 26) =     10.24027  eV     2   --> G_4            

 **************************************************************************

 **************************************************************************

                    xk=(   0.10000,   0.05774,   0.04082  )

     Band symmetry, C_s (m)     double point group:

     e(  1 -  2) =     -8.82435  eV     2   --> G_3            
     e(  1 -  2) =     -8.82435  eV     2   --> G_4            
     e(  3 -  3) =     -8.82389  eV     1   --> G_4            
     e(  4 -  4) =     -8.82089  eV     1   --> G_3            
     e(  5 -  6) =     -8.39373  eV     2   --> G_3            
     e(  5 -  6) =     -8.39373  eV     2   --> G_4            
     e(  7 -  8) =     -8.35054  eV     2   --> G_3            
     e(  7 -  8) =     -8.35054  eV     2   --> G_4            
     e(  9 -  9) =     -8.34827  eV     1   --> G_3            
     e( 10 - 10) =     -8.34491  eV     1   --> G_4            
     e( 11 - 12) =     -6.14289  eV     2   --> G_3            
     e( 11 - 12) =     -6.14289  eV     2   --> G_4            
     e( 13 - 14) =      4.54887  eV     2   --> G_3            
     e( 13 - 14) =      4.54887  eV     2   --> G_4            
     e( 15 - 16) =      5.87176  eV     2   --> G_3            
     e( 15 - 16) =      5.87176  eV     2   --> G_4            
     e( 17 - 17) =      6.08450  eV     1   --> G_4            
     e( 18 - 18) =      6.08681  eV     1   --> G_3            
     e( 19 - 20) =      7.36060  eV     2   --> G_3            
     e( 19 - 20) =      7.36060  eV     2   --> G_4            
     e( 21 - 22) =      9.95845  eV     2   --> G_3            
     e( 21 - 22) =      9.95845  eV     2   --> G_4            
     e( 23 - 24) =     10.08408  eV     2   --> G_3            
     e( 23 - 24) =     10.08408  eV     2   --> G_4            
     e( 25 - 25) =     10.12328  eV     1   --> G_4            
     e( 26 - 26) =     10.12409  eV     1   --> G_3            

 **************************************************************************

 **************************************************************************

                    xk=(   0.07500,   0.04330,   0.03062  )

     Band symmetry, C_s (m)     double point group:

     e(  1 -  3) =     -8.82375  eV     3   --> G_3            
     e(  1 -  3) =     -8.82375  eV     3   -->   2 G_4            
     e(  4 -  4) =     -8.82143  eV     1   --> G_3            
     e(  5 -  6) =     -8.39327  eV     2   --> G_3            
     e(  5 -  6) =     -8.39327  eV     2   --> G_4            
     e(  7 -  8) =     -8.34954  eV     2   --> G_3            
     e(  7 -  8) =     -8.34954  eV     2   --> G_4            
     e(  9 -  9) =     -8.34856  eV     1   --> G_3            
     e( 10 - 10) =     -8.34596  eV     1   --> G_4            
     e( 11 - 12) =     -6.19028  eV     2   --> G_3            
     e( 11 - 12) =     -6.19028  eV     2   --> G_4            
     e( 13 - 14) =      4.97058  eV     2   --> G_3            
     e( 13 - 14) =      4.97058  eV     2   --> G_4            
     e( 15 - 16) =      5.93409  eV     2   --> G_3            
     e( 15 - 16) =      5.93409  eV     2   --> G_4            
     e( 17 - 17) =      6.14658  eV     1   --> G_4            
     e( 18 - 18) =      6.14841  eV     1   --> G_3            
     e( 19 - 20) =      7.16316  eV     2   --> G_3            
     e( 19 - 20) =      7.16316  eV     2   --> G_4            
     e( 21 - 22) =      9.84593  eV     2   --> G_3            
     e( 21 - 22) =      9.84593  eV     2   --> G_4            
     e( 23 - 24) =      9.98965  eV     2   --> G_3            
     e( 23 - 24) =      9.98965  eV     2   --> G_4            
     e( 25 - 25) =     10.03058  eV     1   --> G_4            
     e( 26 - 26) =     10.03110  eV     1   --> G_3            

 **************************************************************************

 **************************************************************************

                    xk=(   0.05000,   0.02887,   0.02041  )

     Band symmetry, C_s (m)     double point group:

     e(  1 -  1) =     -8.82353  eV     1   --> G_4            
     e(  2 -  3) =     -8.82324  eV     2   --> G_3            
     e(  2 -  3) =     -8.82324  eV     2   --> G_4            
     e(  4 -  4) =     -8.82195  eV     1   --> G_3            
     e(  5 -  6) =     -8.39291  eV     2   --> G_3            
     e(  5 -  6) =     -8.39291  eV     2   --> G_4            
     e(  7 -  8) =     -8.34878  eV     2   --> G_3            
     e(  7 -  8) =     -8.34878  eV     2   --> G_4            
     e(  9 -  9) =     -8.34864  eV     1   --> G_3            
     e( 10 - 10) =     -8.34687  eV     1   --> G_4            
     e( 11 - 12) =     -6.22439  eV     2   --> G_3            
     e( 11 - 12) =     -6.22439  eV     2   --> G_4            
     e( 13 - 14) =      5.38014  eV     2   --> G_3            
     e( 13 - 14) =      5.38014  eV     2   --> G_4            
     e( 15 - 16) =      5.98628  eV     2   --> G_3            
     e( 15 - 16) =      5.98628  eV     2   --> G_4            
     e( 17 - 17) =      6.19426  eV     1   --> G_4            
     e( 18 - 18) =      6.19553  eV     1   --> G_3            
     e( 19 - 20) =      6.90059  eV     2   --> G_3            
     e( 19 - 20) =      6.90059  eV     2   --> G_4            
     e( 21 - 22) =      9.76779  eV     2   --> G_3            
     e( 21 - 22) =      9.76779  eV     2   --> G_4            
     e( 23 - 24) =      9.93409  eV     2   --> G_3            
     e( 23 - 24) =      9.93409  eV     2   --> G_4            
     e( 25 - 25) =      9.95902  eV     1   --> G_4            
     e( 26 - 26) =      9.95933  eV     1   --> G_3            

 **************************************************************************

 **************************************************************************

                    xk=(   0.02500,   0.01443,   0.01021  )

     Band symmetry, C_s (m)     double point group:

     e(  1 -  1) =     -8.82323  eV     1   --> G_4            
     e(  2 -  3) =     -8.82295  eV     2   --> G_3            
     e(  2 -  3) =     -8.82295  eV     2   --> G_4            
     e(  4 -  4) =     -8.82243  eV     1   --> G_3            
     e(  5 -  6) =     -8.39270  eV     2   --> G_3            
     e(  5 -  6) =     -8.39270  eV     2   --> G_4            
     e(  7 -  7) =     -8.34850  eV     1   --> G_3            
     e(  8 -  9) =     -8.34831  eV     2   --> G_3            
     e(  8 -  9) =     -8.34831  eV     2   --> G_4            
     e( 10 - 10) =     -8.34760  eV     1   --> G_4            
     e( 11 - 12) =     -6.24497  eV     2   --> G_3            
     e( 11 - 12) =     -6.24497  eV     2   --> G_4            
     e( 13 - 14) =      5.74818  eV     2   --> G_3            
     e( 13 - 14) =      5.74818  eV     2   --> G_4            
     e( 15 - 16) =      6.04608  eV     2   --> G_3            
     e( 15 - 16) =      6.04608  eV     2   --> G_4            
     e( 17 - 17) =      6.22445  eV     1   --> G_4            
     e( 18 - 18) =      6.22510  eV     1   --> G_3            
     e( 19 - 20) =      6.58883  eV     2   --> G_3            
     e( 19 - 20) =      6.58883  eV     2   --> G_4            
     e( 21 - 22) =      9.72283  eV     2   --> G_3            
     e( 21 - 22) =      9.72283  eV     2   --> G_4            
     e( 23 - 24) =      9.90643  eV     2   --> G_3            
     e( 23 - 24) =      9.90643  eV     2   --> G_4            
     e( 25 - 25) =      9.91384  eV     1   --> G_4            
     e( 26 - 26) =      9.91397  eV     1   --> G_3            

 **************************************************************************

 **************************************************************************

                    xk=(   0.00000,   0.00000,   0.00000  )

     double point group C_3v (3m)  
     there are  6 classes and  3 irreducible representations
     the character table:

       E     -E    2C3   -2C3  3s_v  -3s_v
                                          
G_4    2.00 -2.00  1.00 -1.00  0.00  0.00
G_5    1.00 -1.00 -1.00  1.00  0.00  0.00
G_6    1.00 -1.00 -1.00  1.00  0.00  0.00

     imaginary part

       E     -E    2C3   -2C3  3s_v  -3s_v
                                          
G_4    0.00  0.00  0.00  0.00  0.00  0.00
G_5    0.00  0.00  0.00  0.00  1.00 -1.00
G_6    0.00  0.00  0.00  0.00 -1.00  1.00

     the symmetry operations in each class and the name of the first element:

     E             1
                                                                 
     -E           -1
                                                                 
     2C3           2    3
                                                                 
     -2C3         -2   -3
                                                                 
     3s_v          5    6   -4
                                                                 
     -3s_v         4   -5   -6
                                                                 

     Band symmetry, C_3v (3m)   double point group:

     e(  1 -  4) =     -8.82286  eV     4   --> G_4   L_6      
     e(  1 -  4) =     -8.82286  eV     4   --> G_5   L_4      
     e(  1 -  4) =     -8.82286  eV     4   --> G_6   L_5      
     e(  5 -  6) =     -8.39262  eV     2   --> G_4   L_6      
     e(  7 - 10) =     -8.34815  eV     4   --> G_4   L_6      
     e(  7 - 10) =     -8.34815  eV     4   --> G_5   L_4      
     e(  7 - 10) =     -8.34815  eV     4   --> G_6   L_5      
     e( 11 - 12) =     -6.25184  eV     2   --> G_4   L_6      
     e( 13 - 14) =      5.90629  eV     2   --> G_4   L_6      
     e( 15 - 18) =      6.23499  eV     4   --> G_4   L_6      
     e( 15 - 18) =      6.23499  eV     4   --> G_5   L_4      
     e( 15 - 18) =      6.23499  eV     4   --> G_6   L_5      
     e( 19 - 20) =      6.27984  eV     2   --> G_4   L_6      
     e( 21 - 22) =      9.70810  eV     2   --> G_4   L_6      
     e( 23 - 26) =      9.89842  eV     4   --> G_4   L_6      
     e( 23 - 26) =      9.89842  eV     4   --> G_5   L_4      
     e( 23 - 26) =      9.89842  eV     4   --> G_6   L_5      

 **************************************************************************

 **************************************************************************

                    xk=(   0.02500,  -0.01443,   0.02041  )

     double point group C_s (m)    
     there are  4 classes and  2 irreducible representations
     the character table:

       E     -E    s     -s   
                              
G_3    1.00 -1.00  0.00  0.00
G_4    1.00 -1.00  0.00  0.00

     imaginary part

       E     -E    s     -s   
                              
G_3    0.00  0.00  1.00 -1.00
G_4    0.00  0.00 -1.00  1.00

     the symmetry operations in each class and the name of the first element:

     E             1
                                                                 
     -E           -1
                                                                 
     s             2
                                                                 
     -s           -2
                                                                 

     Band symmetry, C_s (m)     double point group:

     e(  1 -  2) =     -8.82327  eV     2   --> G_3            
     e(  1 -  2) =     -8.82327  eV     2   --> G_4            
     e(  3 -  4) =     -8.82254  eV     2   --> G_3            
     e(  3 -  4) =     -8.82254  eV     2   --> G_4            
     e(  5 -  6) =     -8.39272  eV     2   --> G_3            
     e(  5 -  6) =     -8.39272  eV     2   --> G_4            
     e(  7 -  8) =     -8.34855  eV     2   --> G_3            
     e(  7 -  8) =     -8.34855  eV     2   --> G_4            
     e(  9 - 10) =     -8.34782  eV     2   --> G_3            
     e(  9 - 10) =     -8.34782  eV     2   --> G_4            
     e( 11 - 12) =     -6.24268  eV     2   --> G_3            
     e( 11 - 12) =     -6.24268  eV     2   --> G_4            
     e( 13 - 14) =      5.71229  eV     2   --> G_3            
     e( 13 - 14) =      5.71229  eV     2   --> G_4            
     e( 15 - 16) =      6.02164  eV     2   --> G_3            
     e( 15 - 16) =      6.02164  eV     2   --> G_4            
     e( 17 - 18) =      6.20204  eV     2   --> G_3            
     e( 17 - 18) =      6.20204  eV     2   --> G_4            
     e( 19 - 20) =      6.65665  eV     2   --> G_3            
     e( 19 - 20) =      6.65665  eV     2   --> G_4            
     e( 21 - 22) =      9.71925  eV     2   --> G_3            
     e( 21 - 22) =      9.71925  eV     2   --> G_4            
     e( 23 - 24) =      9.89678  eV     2   --> G_3            
     e( 23 - 24) =      9.89678  eV     2   --> G_4            
     e( 25 - 26) =      9.93931  eV     2   --> G_3            
     e( 25 - 26) =      9.93931  eV     2   --> G_4            

 **************************************************************************

 **************************************************************************

                    xk=(   0.05000,  -0.02887,   0.04082  )

     Band symmetry, C_s (m)     double point group:

     e(  1 -  2) =     -8.82395  eV     2   --> G_3            
     e(  1 -  2) =     -8.82395  eV     2   --> G_4            
     e(  3 -  4) =     -8.82211  eV     2   --> G_3            
     e(  3 -  4) =     -8.82211  eV     2   --> G_4            
     e(  5 -  6) =     -8.39302  eV     2   --> G_3            
     e(  5 -  6) =     -8.39302  eV     2   --> G_4            
     e(  7 -  8) =     -8.34901  eV     2   --> G_3            
     e(  7 -  8) =     -8.34901  eV     2   --> G_4            
     e(  9 - 10) =     -8.34757  eV     2   --> G_3            
     e(  9 - 10) =     -8.34757  eV     2   --> G_4            
     e( 11 - 12) =     -6.21524  eV     2   --> G_3            
     e( 11 - 12) =     -6.21524  eV     2   --> G_4            
     e( 13 - 14) =      5.31516  eV     2   --> G_3            
     e( 13 - 14) =      5.31516  eV     2   --> G_4            
     e( 15 - 16) =      5.91302  eV     2   --> G_3            
     e( 15 - 16) =      5.91302  eV     2   --> G_4            
     e( 17 - 18) =      6.10831  eV     2   --> G_3            
     e( 17 - 18) =      6.10831  eV     2   --> G_4            
     e( 19 - 20) =      7.07336  eV     2   --> G_3            
     e( 19 - 20) =      7.07336  eV     2   --> G_4            
     e( 21 - 22) =      9.67385  eV     2   --> G_3            
     e( 21 - 22) =      9.67385  eV     2   --> G_4            
     e( 23 - 24) =      9.97257  eV     2   --> G_3            
     e( 23 - 24) =      9.97257  eV     2   --> G_4            
     e( 25 - 26) =     10.05804  eV     2   --> G_3            
     e( 25 - 26) =     10.05804  eV     2   --> G_4            

 **************************************************************************

 **************************************************************************

                    xk=(   0.07500,  -0.04330,   0.06124  )

     Band symmetry, C_s (m)     double point group:

     e(  1 -  2) =     -8.82499  eV     2   --> G_3            
     e(  1 -  2) =     -8.82499  eV     2   --> G_4            
     e(  3 -  4) =     -8.82152  eV     2   --> G_3            
     e(  3 -  4) =     -8.82152  eV     2   --> G_4            
     e(  5 -  6) =     -8.39357  eV     2   --> G_3            
     e(  5 -  6) =     -8.39357  eV     2   --> G_4            
     e(  7 -  8) =     -8.34947  eV     2   --> G_3            
     e(  7 -  8) =     -8.34947  eV     2   --> G_4            
     e(  9 - 10) =     -8.34741  eV     2   --> G_3            
     e(  9 - 10) =     -8.34741  eV     2   --> G_4            
     e( 11 - 12) =     -6.16975  eV     2   --> G_3            
     e( 11 - 12) =     -6.16975  eV     2   --> G_4            
     e( 13 - 14) =      4.89550  eV     2   --> G_3            
     e( 13 - 14) =      4.89550  eV     2   --> G_4            
     e( 15 - 16) =      5.78016  eV     2   --> G_3            
     e( 15 - 16) =      5.78016  eV     2   --> G_4            
     e( 17 - 18) =      5.96640  eV     2   --> G_3            
     e( 17 - 18) =      5.96640  eV     2   --> G_4            
     e( 19 - 20) =      7.48367  eV     2   --> G_3            
     e( 19 - 20) =      7.48367  eV     2   --> G_4            
     e( 21 - 22) =      9.54377  eV     2   --> G_3            
     e( 21 - 22) =      9.54377  eV     2   --> G_4            
     e( 23 - 24) =     10.15845  eV     2   --> G_3            
     e( 23 - 24) =     10.15845  eV     2   --> G_4            
     e( 25 - 26) =     10.24462  eV     2   --> G_3            
     e( 25 - 26) =     10.24462  eV     2   --> G_4            

 **************************************************************************

 **************************************************************************

                    xk=(   0.10000,  -0.05774,   0.08165  )

     Band symmetry, C_s (m)     double point group:

     e(  1 -  2) =     -8.82637  eV     2   --> G_3            
     e(  1 -  2) =     -8.82637  eV     2   --> G_4            
     e(  3 -  4) =     -8.82073  eV     2   --> G_3            
     e(  3 -  4) =     -8.82073  eV     2   --> G_4            
     e(  5 -  6) =     -8.39434  eV     2   --> G_3            
     e(  5 -  6) =     -8.39434  eV     2   --> G_4            
     e(  7 -  8) =     -8.34981  eV     2   --> G_3            
     e(  7 -  8) =     -8.34981  eV     2   --> G_4            
     e(  9 - 10) =     -8.34730  eV     2   --> G_3            
     e(  9 - 10) =     -8.34730  eV     2   --> G_4            
     e( 11 - 12) =     -6.10655  eV     2   --> G_3            
     e( 11 - 12) =     -6.10655  eV     2   --> G_4            
     e( 13 - 14) =      4.47483  eV     2   --> G_3            
     e( 13 - 14) =      4.47483  eV     2   --> G_4            
     e( 15 - 16) =      5.61836  eV     2   --> G_3            
     e( 15 - 16) =      5.61836  eV     2   --> G_4            
     e( 17 - 18) =      5.79127  eV     2   --> G_3            
     e( 17 - 18) =      5.79127  eV     2   --> G_4            
     e( 19 - 20) =      7.87391  eV     2   --> G_3            
     e( 19 - 20) =      7.87391  eV     2   --> G_4            
     e( 21 - 22) =      9.37808  eV     2   --> G_3            
     e( 21 - 22) =      9.37808  eV     2   --> G_4            
     e( 23 - 24) =     10.41188  eV     2   --> G_3            
     e( 23 - 24) =     10.41188  eV     2   --> G_4            
     e( 25 - 26) =     10.48658  eV     2   --> G_3            
     e( 25 - 26) =     10.48658  eV     2   --> G_4            

 **************************************************************************

 **************************************************************************

                    xk=(   0.12500,  -0.07217,   0.10206  )

     Band symmetry, C_s (m)     double point group:

     e(  1 -  2) =     -8.82808  eV     2   --> G_3            
     e(  1 -  2) =     -8.82808  eV     2   --> G_4            
     e(  3 -  4) =     -8.81976  eV     2   --> G_3            
     e(  3 -  4) =     -8.81976  eV     2   --> G_4            
     e(  5 -  6) =     -8.39539  eV     2   --> G_3            
     e(  5 -  6) =     -8.39539  eV     2   --> G_4            
     e(  7 -  8) =     -8.34995  eV     2   --> G_3            
     e(  7 -  8) =     -8.34995  eV     2   --> G_4            
     e(  9 - 10) =     -8.34721  eV     2   --> G_3            
     e(  9 - 10) =     -8.34721  eV     2   --> G_4            
     e( 11 - 12) =     -6.02609  eV     2   --> G_3            
     e( 11 - 12) =     -6.02609  eV     2   --> G_4            
     e( 13 - 14) =      4.05720  eV     2   --> G_3            
     e( 13 - 14) =      4.05720  eV     2   --> G_4            
     e( 15 - 16) =      5.43684  eV     2   --> G_3            
     e( 15 - 16) =      5.43684  eV     2   --> G_4            
     e( 17 - 18) =      5.59612  eV     2   --> G_3            
     e( 17 - 18) =      5.59612  eV     2   --> G_4            
     e( 19 - 20) =      8.22247  eV     2   --> G_3            
     e( 19 - 20) =      8.22247  eV     2   --> G_4            
     e( 21 - 22) =      9.21031  eV     2   --> G_3            
     e( 21 - 22) =      9.21031  eV     2   --> G_4            
     e( 23 - 24) =     10.71150  eV     2   --> G_3            
     e( 23 - 24) =     10.71150  eV     2   --> G_4            
     e( 25 - 26) =     10.77201  eV     2   --> G_3            
     e( 25 - 26) =     10.77201  eV     2   --> G_4            

 **************************************************************************

 **************************************************************************

                    xk=(   0.15000,  -0.08660,   0.12247  )

     Band symmetry, C_s (m)     double point group:

     e(  1 -  2) =     -8.83007  eV     2   --> G_3            
     e(  1 -  2) =     -8.83007  eV     2   --> G_4            
     e(  3 -  4) =     -8.81867  eV     2   --> G_3            
     e(  3 -  4) =     -8.81867  eV     2   --> G_4            
     e(  5 -  6) =     -8.39671  eV     2   --> G_3            
     e(  5 -  6) =     -8.39671  eV     2   --> G_4            
     e(  7 -  8) =     -8.34982  eV     2   --> G_3            
     e(  7 -  8) =     -8.34982  eV     2   --> G_4            
     e(  9 - 10) =     -8.34717  eV     2   --> G_3            
     e(  9 - 10) =     -8.34717  eV     2   --> G_4            
     e( 11 - 12) =     -5.92899  eV     2   --> G_3            
     e( 11 - 12) =     -5.92899  eV     2   --> G_4            
     e( 13 - 14) =      3.64431  eV     2   --> G_3            
     e( 13 - 14) =      3.64431  eV     2   --> G_4            
     e( 15 - 16) =      5.24463  eV     2   --> G_3            
     e( 15 - 16) =      5.24463  eV     2   --> G_4            
     e( 17 - 18) =      5.39135  eV     2   --> G_3            
     e( 17 - 18) =      5.39135  eV     2   --> G_4            
     e( 19 - 20) =      8.47637  eV     2   --> G_3            
     e( 19 - 20) =      8.47637  eV     2   --> G_4            
     e( 21 - 22) =      9.09150  eV     2   --> G_3            
     e( 21 - 22) =      9.09150  eV     2   --> G_4            
     e( 23 - 24) =     11.04456  eV     2   --> G_3            
     e( 23 - 24) =     11.04456  eV     2   --> G_4            
     e( 25 - 26) =     11.09093  eV     2   --> G_3            
     e( 25 - 26) =     11.09093  eV     2   --> G_4            

 **************************************************************************

 **************************************************************************

                    xk=(   0.17500,  -0.10104,   0.14289  )

     Band symmetry, C_s (m)     double point group:

     e(  1 -  2) =     -8.83229  eV     2   --> G_3            
     e(  1 -  2) =     -8.83229  eV     2   --> G_4            
     e(  3 -  4) =     -8.81744  eV     2   --> G_3            
     e(  3 -  4) =     -8.81744  eV     2   --> G_4            
     e(  5 -  6) =     -8.39824  eV     2   --> G_3            
     e(  5 -  6) =     -8.39824  eV     2   --> G_4            
     e(  7 -  8) =     -8.34937  eV     2   --> G_3            
     e(  7 -  8) =     -8.34937  eV     2   --> G_4            
     e(  9 - 10) =     -8.34710  eV     2   --> G_3            
     e(  9 - 10) =     -8.34710  eV     2   --> G_4            
     e( 11 - 12) =     -5.81596  eV     2   --> G_3            
     e( 11 - 12) =     -5.81596  eV     2   --> G_4            
     e( 13 - 14) =      3.23715  eV     2   --> G_3            
     e( 13 - 14) =      3.23715  eV     2   --> G_4            
     e( 15 - 16) =      5.04904  eV     2   --> G_3            
     e( 15 - 16) =      5.04904  eV     2   --> G_4            
     e( 17 - 18) =      5.18469  eV     2   --> G_3            
     e( 17 - 18) =      5.18469  eV     2   --> G_4            
     e( 19 - 20) =      8.53027  eV     2   --> G_3            
     e( 19 - 20) =      8.53027  eV     2   --> G_4            
     e( 21 - 22) =      9.11507  eV     2   --> G_3            
     e( 21 - 22) =      9.11507  eV     2   --> G_4            
     e( 23 - 24) =     11.40218  eV     2   --> G_3            
     e( 23 - 24) =     11.40218  eV     2   --> G_4            
     e( 25 - 26) =     11.43548  eV     2   --> G_3            
     e( 25 - 26) =     11.43548  eV     2   --> G_4            

 **************************************************************************

 **************************************************************************

                    xk=(   0.20000,  -0.11547,   0.16330  )

     Band symmetry, C_s (m)     double point group:

     e(  1 -  2) =     -8.83467  eV     2   --> G_3            
     e(  1 -  2) =     -8.83467  eV     2   --> G_4            
     e(  3 -  4) =     -8.81612  eV     2   --> G_3            
     e(  3 -  4) =     -8.81612  eV     2   --> G_4            
     e(  5 -  6) =     -8.39991  eV     2   --> G_3            
     e(  5 -  6) =     -8.39991  eV     2   --> G_4            
     e(  7 -  8) =     -8.34861  eV     2   --> G_3            
     e(  7 -  8) =     -8.34861  eV     2   --> G_4            
     e(  9 - 10) =     -8.34696  eV     2   --> G_3            
     e(  9 - 10) =     -8.34696  eV     2   --> G_4            
     e( 11 - 12) =     -5.68791  eV     2   --> G_3            
     e( 11 - 12) =     -5.68791  eV     2   --> G_4            
     e( 13 - 14) =      2.83668  eV     2   --> G_3            
     e( 13 - 14) =      2.83668  eV     2   --> G_4            
     e( 15 - 16) =      4.85559  eV     2   --> G_3            
     e( 15 - 16) =      4.85559  eV     2   --> G_4            
     e( 17 - 18) =      4.98169  eV     2   --> G_3            
     e( 17 - 18) =      4.98169  eV     2   --> G_4            
     e( 19 - 20) =      8.42297  eV     2   --> G_3            
     e( 19 - 20) =      8.42297  eV     2   --> G_4            
     e( 21 - 22) =      9.22451  eV     2   --> G_3            
     e( 21 - 22) =      9.22451  eV     2   --> G_4            
     e( 23 - 24) =     11.77774  eV     2   --> G_3            
     e( 23 - 24) =     11.77774  eV     2   --> G_4            
     e( 25 - 26) =     11.79997  eV     2   --> G_3            
     e( 25 - 26) =     11.79997  eV     2   --> G_4            

 **************************************************************************

 **************************************************************************

                    xk=(   0.22500,  -0.12990,   0.18371  )

     Band symmetry, C_s (m)     double point group:

     e(  1 -  2) =     -8.83717  eV     2   --> G_3            
     e(  1 -  2) =     -8.83717  eV     2   --> G_4            
     e(  3 -  4) =     -8.81477  eV     2   --> G_3            
     e(  3 -  4) =     -8.81477  eV     2   --> G_4            
     e(  5 -  6) =     -8.40169  eV     2   --> G_3            
     e(  5 -  6) =     -8.40169  eV     2   --> G_4            
     e(  7 -  8) =     -8.34781  eV     2   --> G_3            
     e(  7 -  8) =     -8.34781  eV     2   --> G_4            
     e(  9 - 10) =     -8.34659  eV     2   --> G_3            
     e(  9 - 10) =     -8.34659  eV     2   --> G_4            
     e( 11 - 12) =     -5.54592  eV     2   --> G_3            
     e( 11 - 12) =     -5.54592  eV     2   --> G_4            
     e( 13 - 14) =      2.44386  eV     2   --> G_3            
     e( 13 - 14) =      2.44386  eV     2   --> G_4            
     e( 15 - 16) =      4.66842  eV     2   --> G_3            
     e( 15 - 16) =      4.66842  eV     2   --> G_4            
     e( 17 - 18) =      4.78637  eV     2   --> G_3            
     e( 17 - 18) =      4.78637  eV     2   --> G_4            
     e( 19 - 20) =      8.27487  eV     2   --> G_3            
     e( 19 - 20) =      8.27487  eV     2   --> G_4            
     e( 21 - 22) =      9.28522  eV     2   --> G_3            
     e( 21 - 22) =      9.28522  eV     2   --> G_4            
     e( 23 - 24) =     12.16501  eV     2   --> G_3            
     e( 23 - 24) =     12.16501  eV     2   --> G_4            
     e( 25 - 26) =     12.18076  eV     2   --> G_3            
     e( 25 - 26) =     12.18076  eV     2   --> G_4            

 **************************************************************************

 **************************************************************************

                    xk=(   0.25000,  -0.14434,   0.20412  )

     Band symmetry, C_s (m)     double point group:

     e(  1 -  2) =     -8.83970  eV     2   --> G_3            
     e(  1 -  2) =     -8.83970  eV     2   --> G_4            
     e(  3 -  4) =     -8.81336  eV     2   --> G_3            
     e(  3 -  4) =     -8.81336  eV     2   --> G_4            
     e(  5 -  6) =     -8.40343  eV     2   --> G_3            
     e(  5 -  6) =     -8.40343  eV     2   --> G_4            
     e(  7 -  8) =     -8.34735  eV     2   --> G_3            
     e(  7 -  8) =     -8.34735  eV     2   --> G_4            
     e(  9 - 10) =     -8.34553  eV     2   --> G_3            
     e(  9 - 10) =     -8.34553  eV     2   --> G_4            
     e( 11 - 12) =     -5.39134  eV     2   --> G_3            
     e( 11 - 12) =     -5.39134  eV     2   --> G_4            
     e( 13 - 14) =      2.05995  eV     2   --> G_3            
     e( 13 - 14) =      2.05995  eV     2   --> G_4            
     e( 15 - 16) =      4.49074  eV     2   --> G_3            
     e( 15 - 16) =      4.49074  eV     2   --> G_4            
     e( 17 - 18) =      4.60180  eV     2   --> G_3            
     e( 17 - 18) =      4.60180  eV     2   --> G_4            
     e( 19 - 20) =      8.12684  eV     2   --> G_3            
     e( 19 - 20) =      8.12684  eV     2   --> G_4            
     e( 21 - 22) =      9.25858  eV     2   --> G_3            
     e( 21 - 22) =      9.25858  eV     2   --> G_4            
     e( 23 - 24) =     12.55813  eV     2   --> G_3            
     e( 23 - 24) =     12.55813  eV     2   --> G_4            
     e( 25 - 26) =     12.57661  eV     2   --> G_3            
     e( 25 - 26) =     12.57661  eV     2   --> G_4            

 **************************************************************************

 **************************************************************************

                    xk=(   0.27500,  -0.15877,   0.22454  )

     Band symmetry, C_s (m)     double point group:

     e(  1 -  2) =     -8.84222  eV     2   --> G_3            
     e(  1 -  2) =     -8.84222  eV     2   --> G_4            
     e(  3 -  4) =     -8.81199  eV     2   --> G_3            
     e(  3 -  4) =     -8.81199  eV     2   --> G_4            
     e(  5 -  6) =     -8.40513  eV     2   --> G_3            
     e(  5 -  6) =     -8.40513  eV     2   --> G_4            
     e(  7 -  8) =     -8.34717  eV     2   --> G_3            
     e(  7 -  8) =     -8.34717  eV     2   --> G_4            
     e(  9 - 10) =     -8.34402  eV     2   --> G_3            
     e(  9 - 10) =     -8.34402  eV     2   --> G_4            
     e( 11 - 12) =     -5.22585  eV     2   --> G_3            
     e( 11 - 12) =     -5.22585  eV     2   --> G_4            
     e( 13 - 14) =      1.68654  eV     2   --> G_3            
     e( 13 - 14) =      1.68654  eV     2   --> G_4            
     e( 15 - 16) =      4.32490  eV     2   --> G_3            
     e( 15 - 16) =      4.32490  eV     2   --> G_4            
     e( 17 - 18) =      4.43017  eV     2   --> G_3            
     e( 17 - 18) =      4.43017  eV     2   --> G_4            
     e( 19 - 20) =      7.99090  eV     2   --> G_3            
     e( 19 - 20) =      7.99090  eV     2   --> G_4            
     e( 21 - 22) =      9.15364  eV     2   --> G_3            
     e( 21 - 22) =      9.15364  eV     2   --> G_4            
     e( 23 - 24) =     12.95530  eV     2   --> G_3            
     e( 23 - 24) =     12.95530  eV     2   --> G_4            
     e( 25 - 26) =     12.98289  eV     2   --> G_3            
     e( 25 - 26) =     12.98289  eV     2   --> G_4            

 **************************************************************************

 **************************************************************************

                    xk=(   0.30000,  -0.17321,   0.24495  )

     Band symmetry, C_s (m)     double point group:

     e(  1 -  2) =     -8.84469  eV     2   --> G_3            
     e(  1 -  2) =     -8.84469  eV     2   --> G_4            
     e(  3 -  4) =     -8.81068  eV     2   --> G_3            
     e(  3 -  4) =     -8.81068  eV     2   --> G_4            
     e(  5 -  6) =     -8.40673  eV     2   --> G_3            
     e(  5 -  6) =     -8.40673  eV     2   --> G_4            
     e(  7 -  8) =     -8.34705  eV     2   --> G_3            
     e(  7 -  8) =     -8.34705  eV     2   --> G_4            
     e(  9 - 10) =     -8.34235  eV     2   --> G_3            
     e(  9 - 10) =     -8.34235  eV     2   --> G_4            
     e( 11 - 12) =     -5.05165  eV     2   --> G_3            
     e( 11 - 12) =     -5.05165  eV     2   --> G_4            
     e( 13 - 14) =      1.32575  eV     2   --> G_3            
     e( 13 - 14) =      1.32575  eV     2   --> G_4            
     e( 15 - 16) =      4.17278  eV     2   --> G_3            
     e( 15 - 16) =      4.17278  eV     2   --> G_4            
     e( 17 - 18) =      4.27320  eV     2   --> G_3            
     e( 17 - 18) =      4.27320  eV     2   --> G_4            
     e( 19 - 20) =      7.87202  eV     2   --> G_3            
     e( 19 - 20) =      7.87202  eV     2   --> G_4            
     e( 21 - 22) =      8.99575  eV     2   --> G_3            
     e( 21 - 22) =      8.99575  eV     2   --> G_4            
     e( 23 - 24) =     13.35645  eV     2   --> G_3            
     e( 23 - 24) =     13.35645  eV     2   --> G_4            
     e( 25 - 26) =     13.39468  eV     2   --> G_3            
     e( 25 - 26) =     13.39468  eV     2   --> G_4            

 **************************************************************************

 **************************************************************************

                    xk=(   0.32500,  -0.18764,   0.26536  )

     Band symmetry, C_s (m)     double point group:

     e(  1 -  2) =     -8.84699  eV     2   --> G_3            
     e(  1 -  2) =     -8.84699  eV     2   --> G_4            
     e(  3 -  4) =     -8.80947  eV     2   --> G_3            
     e(  3 -  4) =     -8.80947  eV     2   --> G_4            
     e(  5 -  6) =     -8.40815  eV     2   --> G_3            
     e(  5 -  6) =     -8.40815  eV     2   --> G_4            
     e(  7 -  8) =     -8.34697  eV     2   --> G_3            
     e(  7 -  8) =     -8.34697  eV     2   --> G_4            
     e(  9 - 10) =     -8.34062  eV     2   --> G_3            
     e(  9 - 10) =     -8.34062  eV     2   --> G_4            
     e( 11 - 12) =     -4.87159  eV     2   --> G_3            
     e( 11 - 12) =     -4.87159  eV     2   --> G_4            
     e( 13 - 14) =      0.98055  eV     2   --> G_3            
     e( 13 - 14) =      0.98055  eV     2   --> G_4            
     e( 15 - 16) =      4.03583  eV     2   --> G_3            
     e( 15 - 16) =      4.03583  eV     2   --> G_4            
     e( 17 - 18) =      4.13222  eV     2   --> G_3            
     e( 17 - 18) =      4.13222  eV     2   --> G_4            
     e( 19 - 20) =      7.77290  eV     2   --> G_3            
     e( 19 - 20) =      7.77290  eV     2   --> G_4            
     e( 21 - 22) =      8.80999  eV     2   --> G_3            
     e( 21 - 22) =      8.80999  eV     2   --> G_4            
     e( 23 - 24) =     13.75999  eV     2   --> G_3            
     e( 23 - 24) =     13.75999  eV     2   --> G_4            
     e( 25 - 26) =     13.80824  eV     2   --> G_3            
     e( 25 - 26) =     13.80824  eV     2   --> G_4            

 **************************************************************************

 **************************************************************************

                    xk=(   0.35000,  -0.20207,   0.28577  )

     Band symmetry, C_s (m)     double point group:

     e(  1 -  2) =     -8.84911  eV     2   --> G_3            
     e(  1 -  2) =     -8.84911  eV     2   --> G_4            
     e(  3 -  4) =     -8.80834  eV     2   --> G_3            
     e(  3 -  4) =     -8.80834  eV     2   --> G_4            
     e(  5 -  6) =     -8.40939  eV     2   --> G_3            
     e(  5 -  6) =     -8.40939  eV     2   --> G_4            
     e(  7 -  8) =     -8.34685  eV     2   --> G_3            
     e(  7 -  8) =     -8.34685  eV     2   --> G_4            
     e(  9 - 10) =     -8.33893  eV     2   --> G_3            
     e(  9 - 10) =     -8.33893  eV     2   --> G_4            
     e( 11 - 12) =     -4.68947  eV     2   --> G_3            
     e( 11 - 12) =     -4.68947  eV     2   --> G_4            
     e( 13 - 14) =      0.65479  eV     2   --> G_3            
     e( 13 - 14) =      0.65479  eV     2   --> G_4            
     e( 15 - 16) =      3.91519  eV     2   --> G_3            
     e( 15 - 16) =      3.91519  eV     2   --> G_4            
     e( 17 - 18) =      4.00829  eV     2   --> G_3            
     e( 17 - 18) =      4.00829  eV     2   --> G_4            
     e( 19 - 20) =      7.69515  eV     2   --> G_3            
     e( 19 - 20) =      7.69515  eV     2   --> G_4            
     e( 21 - 22) =      8.61561  eV     2   --> G_3            
     e( 21 - 22) =      8.61561  eV     2   --> G_4            
     e( 23 - 24) =     14.16297  eV     2   --> G_3            
     e( 23 - 24) =     14.16297  eV     2   --> G_4            
     e( 25 - 26) =     14.21964  eV     2   --> G_3            
     e( 25 - 26) =     14.21964  eV     2   --> G_4            

 **************************************************************************

 **************************************************************************

                    xk=(   0.37500,  -0.21651,   0.30619  )

     Band symmetry, C_s (m)     double point group:

     e(  1 -  2) =     -8.85098  eV     2   --> G_3            
     e(  1 -  2) =     -8.85098  eV     2   --> G_4            
     e(  3 -  4) =     -8.80733  eV     2   --> G_3            
     e(  3 -  4) =     -8.80733  eV     2   --> G_4            
     e(  5 -  6) =     -8.41042  eV     2   --> G_3            
     e(  5 -  6) =     -8.41042  eV     2   --> G_4            
     e(  7 -  8) =     -8.34673  eV     2   --> G_3            
     e(  7 -  8) =     -8.34673  eV     2   --> G_4            
     e(  9 - 10) =     -8.33732  eV     2   --> G_3            
     e(  9 - 10) =     -8.33732  eV     2   --> G_4            
     e( 11 - 12) =     -4.51041  eV     2   --> G_3            
     e( 11 - 12) =     -4.51041  eV     2   --> G_4            
     e( 13 - 14) =      0.35374  eV     2   --> G_3            
     e( 13 - 14) =      0.35374  eV     2   --> G_4            
     e( 15 - 16) =      3.81178  eV     2   --> G_3            
     e( 15 - 16) =      3.81178  eV     2   --> G_4            
     e( 17 - 18) =      3.90222  eV     2   --> G_3            
     e( 17 - 18) =      3.90222  eV     2   --> G_4            
     e( 19 - 20) =      7.63988  eV     2   --> G_3            
     e( 19 - 20) =      7.63988  eV     2   --> G_4            
     e( 21 - 22) =      8.42554  eV     2   --> G_3            
     e( 21 - 22) =      8.42554  eV     2   --> G_4            
     e( 23 - 24) =     14.56026  eV     2   --> G_3            
     e( 23 - 24) =     14.56026  eV     2   --> G_4            
     e( 25 - 26) =     14.62325  eV     2   --> G_3            
     e( 25 - 26) =     14.62325  eV     2   --> G_4            

 **************************************************************************

 **************************************************************************

                    xk=(   0.40000,  -0.23094,   0.32660  )

     Band symmetry, C_s (m)     double point group:

     e(  1 -  2) =     -8.85261  eV     2   --> G_3            
     e(  1 -  2) =     -8.85261  eV     2   --> G_4            
     e(  3 -  4) =     -8.80653  eV     2   --> G_3            
     e(  3 -  4) =     -8.80653  eV     2   --> G_4            
     e(  5 -  6) =     -8.41131  eV     2   --> G_3            
     e(  5 -  6) =     -8.41131  eV     2   --> G_4            
     e(  7 -  8) =     -8.34666  eV     2   --> G_3            
     e(  7 -  8) =     -8.34666  eV     2   --> G_4            
     e(  9 - 10) =     -8.33597  eV     2   --> G_3            
     e(  9 - 10) =     -8.33597  eV     2   --> G_4            
     e( 11 - 12) =     -4.34129  eV     2   --> G_3            
     e( 11 - 12) =     -4.34129  eV     2   --> G_4            
     e( 13 - 14) =      0.08446  eV     2   --> G_3            
     e( 13 - 14) =      0.08446  eV     2   --> G_4            
     e( 15 - 16) =      3.72627  eV     2   --> G_3            
     e( 15 - 16) =      3.72627  eV     2   --> G_4            
     e( 17 - 18) =      3.81462  eV     2   --> G_3            
     e( 17 - 18) =      3.81462  eV     2   --> G_4            
     e( 19 - 20) =      7.60775  eV     2   --> G_3            
     e( 19 - 20) =      7.60775  eV     2   --> G_4            
     e( 21 - 22) =      8.24823  eV     2   --> G_3            
     e( 21 - 22) =      8.24823  eV     2   --> G_4            
     e( 23 - 24) =     14.94288  eV     2   --> G_3            
     e( 23 - 24) =     14.94288  eV     2   --> G_4            
     e( 25 - 26) =     15.00968  eV     2   --> G_3            
     e( 25 - 26) =     15.00968  eV     2   --> G_4            

 **************************************************************************

 **************************************************************************

                    xk=(   0.42500,  -0.24537,   0.34701  )

     Band symmetry, C_s (m)     double point group:

     e(  1 -  2) =     -8.85390  eV     2   --> G_3            
     e(  1 -  2) =     -8.85390  eV     2   --> G_4            
     e(  3 -  4) =     -8.80583  eV     2   --> G_3            
     e(  3 -  4) =     -8.80583  eV     2   --> G_4            
     e(  5 -  6) =     -8.41197  eV     2   --> G_3            
     e(  5 -  6) =     -8.41197  eV     2   --> G_4            
     e(  7 -  8) =     -8.34653  eV     2   --> G_3            
     e(  7 -  8) =     -8.34653  eV     2   --> G_4            
     e(  9 - 10) =     -8.33482  eV     2   --> G_3            
     e(  9 - 10) =     -8.33482  eV     2   --> G_4            
     e( 11 - 12) =     -4.19107  eV     2   --> G_3            
     e( 11 - 12) =     -4.19107  eV     2   --> G_4            
     e( 13 - 14) =     -0.14390  eV     2   --> G_3            
     e( 13 - 14) =     -0.14390  eV     2   --> G_4            
     e( 15 - 16) =      3.65924  eV     2   --> G_3            
     e( 15 - 16) =      3.65924  eV     2   --> G_4            
     e( 17 - 18) =      3.74602  eV     2   --> G_3            
     e( 17 - 18) =      3.74602  eV     2   --> G_4            
     e( 19 - 20) =      7.59917  eV     2   --> G_3            
     e( 19 - 20) =      7.59917  eV     2   --> G_4            
     e( 21 - 22) =      8.08950  eV     2   --> G_3            
     e( 21 - 22) =      8.08950  eV     2   --> G_4            
     e( 23 - 24) =     15.29697  eV     2   --> G_3            
     e( 23 - 24) =     15.29697  eV     2   --> G_4            
     e( 25 - 26) =     15.36445  eV     2   --> G_3            
     e( 25 - 26) =     15.36445  eV     2   --> G_4            

 **************************************************************************

 **************************************************************************

                    xk=(   0.45000,  -0.25981,   0.36742  )

     Band symmetry, C_s (m)     double point group:

     e(  1 -  2) =     -8.85482  eV     2   --> G_3            
     e(  1 -  2) =     -8.85482  eV     2   --> G_4            
     e(  3 -  4) =     -8.80536  eV     2   --> G_3            
     e(  3 -  4) =     -8.80536  eV     2   --> G_4            
     e(  5 -  6) =     -8.41242  eV     2   --> G_3            
     e(  5 -  6) =     -8.41242  eV     2   --> G_4            
     e(  7 -  8) =     -8.34648  eV     2   --> G_3            
     e(  7 -  8) =     -8.34648  eV     2   --> G_4            
     e(  9 - 10) =     -8.33396  eV     2   --> G_3            
     e(  9 - 10) =     -8.33396  eV     2   --> G_4            
     e( 11 - 12) =     -4.07072  eV     2   --> G_3            
     e( 11 - 12) =     -4.07072  eV     2   --> G_4            
     e( 13 - 14) =     -0.32020  eV     2   --> G_3            
     e( 13 - 14) =     -0.32020  eV     2   --> G_4            
     e( 15 - 16) =      3.61108  eV     2   --> G_3            
     e( 15 - 16) =      3.61108  eV     2   --> G_4            
     e( 17 - 18) =      3.69676  eV     2   --> G_3            
     e( 17 - 18) =      3.69676  eV     2   --> G_4            
     e( 19 - 20) =      7.61360  eV     2   --> G_3            
     e( 19 - 20) =      7.61360  eV     2   --> G_4            
     e( 21 - 22) =      7.95324  eV     2   --> G_3            
     e( 21 - 22) =      7.95324  eV     2   --> G_4            
     e( 23 - 24) =     15.59838  eV     2   --> G_3            
     e( 23 - 24) =     15.59838  eV     2   --> G_4            
     e( 25 - 26) =     15.66269  eV     2   --> G_3            
     e( 25 - 26) =     15.66269  eV     2   --> G_4            

 **************************************************************************

 **************************************************************************

                    xk=(   0.47500,  -0.27424,   0.38784  )

     Band symmetry, C_s (m)     double point group:

     e(  1 -  2) =     -8.85539  eV     2   --> G_3            
     e(  1 -  2) =     -8.85539  eV     2   --> G_4            
[...]
     e(  1 -  1) =     -8.84179  eV     1   --> G_3            
     e(  2 -  2) =     -8.83104  eV     1   --> G_4            
     e(  3 -  3) =     -8.81599  eV     1   --> G_3            
     e(  4 -  4) =     -8.81568  eV     1   --> G_4            
     e(  5 -  5) =     -8.41234  eV     1   --> G_4            
     e(  6 -  6) =     -8.38734  eV     1   --> G_3            
     e(  7 -  7) =     -8.36125  eV     1   --> G_3            
     e(  8 -  8) =     -8.35390  eV     1   --> G_4            
     e(  9 -  9) =     -8.34213  eV     1   --> G_3            
     e( 10 - 10) =     -8.33874  eV     1   --> G_4            
     e( 11 - 11) =     -5.47938  eV     1   --> G_3            
     e( 12 - 12) =     -5.47637  eV     1   --> G_4            
     e( 13 - 13) =      2.00432  eV     1   --> G_3            
     e( 14 - 14) =      2.03588  eV     1   --> G_4            
     e( 15 - 15) =      4.10202  eV     1   --> G_4            
     e( 16 - 16) =      4.16265  eV     1   --> G_3            
     e( 17 - 17) =      5.61871  eV     1   --> G_3            
     e( 18 - 18) =      5.61977  eV     1   --> G_4            
     e( 19 - 19) =      8.47815  eV     1   --> G_3            
     e( 20 - 20) =      8.54283  eV     1   --> G_4            
     e( 21 - 21) =     10.52273  eV     1   --> G_4            
     e( 22 - 22) =     10.57576  eV     1   --> G_3            
     e( 23 - 23) =     10.67770  eV     1   --> G_3            
     e( 24 - 24) =     10.67898  eV     1   --> G_4            
     e( 25 - 25) =     11.66974  eV     1   --> G_3            
     e( 26 - 26) =     11.69292  eV     1   --> G_4            

 **************************************************************************

 **************************************************************************

                    xk=(   0.15000,   0.08660,   0.24495  )

     Band symmetry, C_s (m)     double point group:

     e(  1 -  1) =     -8.83789  eV     1   --> G_3            
     e(  2 -  2) =     -8.83011  eV     1   --> G_4            
     e(  3 -  3) =     -8.81760  eV     1   --> G_4            
     e(  4 -  4) =     -8.81680  eV     1   --> G_3            
     e(  5 -  5) =     -8.40818  eV     1   --> G_4            
     e(  6 -  6) =     -8.38915  eV     1   --> G_3            
     e(  7 -  7) =     -8.35936  eV     1   --> G_3            
     e(  8 -  8) =     -8.35354  eV     1   --> G_4            
     e(  9 -  9) =     -8.34365  eV     1   --> G_3            
     e( 10 - 10) =     -8.33981  eV     1   --> G_4            
     e( 11 - 11) =     -5.63087  eV     1   --> G_3            
     e( 12 - 12) =     -5.62839  eV     1   --> G_4            
     e( 13 - 13) =      2.40679  eV     1   --> G_3            
     e( 14 - 14) =      2.43569  eV     1   --> G_4            
     e( 15 - 15) =      4.41019  eV     1   --> G_4            
     e( 16 - 16) =      4.46981  eV     1   --> G_3            
     e( 17 - 17) =      5.73499  eV     1   --> G_3            
     e( 18 - 18) =      5.73669  eV     1   --> G_4            
     e( 19 - 19) =      8.35249  eV     1   --> G_3            
     e( 20 - 20) =      8.41719  eV     1   --> G_4            
     e( 21 - 21) =     10.32288  eV     1   --> G_4            
     e( 22 - 22) =     10.37577  eV     1   --> G_3            
     e( 23 - 23) =     10.50076  eV     1   --> G_3            
     e( 24 - 24) =     10.50301  eV     1   --> G_4            
     e( 25 - 25) =     11.61259  eV     1   --> G_3            
     e( 26 - 26) =     11.63263  eV     1   --> G_4            

 **************************************************************************

 **************************************************************************

                    xk=(   0.13125,   0.07578,   0.21433  )

     Band symmetry, C_s (m)     double point group:

     e(  1 -  1) =     -8.83427  eV     1   --> G_3            
     e(  2 -  2) =     -8.82912  eV     1   --> G_4            
     e(  3 -  3) =     -8.81929  eV     1   --> G_4            
     e(  4 -  4) =     -8.81765  eV     1   --> G_3            
     e(  5 -  5) =     -8.40433  eV     1   --> G_4            
     e(  6 -  6) =     -8.39064  eV     1   --> G_3            
     e(  7 -  7) =     -8.35744  eV     1   --> G_3            
     e(  8 -  8) =     -8.35299  eV     1   --> G_4            
     e(  9 -  9) =     -8.34509  eV     1   --> G_3            
     e( 10 - 10) =     -8.34096  eV     1   --> G_4            
     e( 11 - 11) =     -5.76938  eV     1   --> G_3            
     e( 12 - 12) =     -5.76747  eV     1   --> G_4            
     e( 13 - 13) =      2.83364  eV     1   --> G_3            
     e( 14 - 14) =      2.86001  eV     1   --> G_4            
     e( 15 - 15) =      4.71953  eV     1   --> G_4            
     e( 16 - 16) =      4.77801  eV     1   --> G_3            
     e( 17 - 17) =      5.83619  eV     1   --> G_3            
     e( 18 - 18) =      5.83877  eV     1   --> G_4            
     e( 19 - 19) =      8.20982  eV     1   --> G_3            
     e( 20 - 20) =      8.27204  eV     1   --> G_4            
     e( 21 - 21) =     10.15441  eV     1   --> G_4            
     e( 22 - 22) =     10.20529  eV     1   --> G_3            
     e( 23 - 23) =     10.34546  eV     1   --> G_3            
     e( 24 - 24) =     10.34871  eV     1   --> G_4            
     e( 25 - 25) =     11.46144  eV     1   --> G_3            
     e( 26 - 26) =     11.47836  eV     1   --> G_4            

 **************************************************************************

 **************************************************************************

                    xk=(   0.11250,   0.06495,   0.18371  )

     Band symmetry, C_s (m)     double point group:

     e(  1 -  1) =     -8.83101  eV     1   --> G_3            
     e(  2 -  2) =     -8.82805  eV     1   --> G_4            
     e(  3 -  3) =     -8.82068  eV     1   --> G_4            
     e(  4 -  4) =     -8.81850  eV     1   --> G_3            
     e(  5 -  5) =     -8.40093  eV     1   --> G_4            
     e(  6 -  6) =     -8.39175  eV     1   --> G_3            
     e(  7 -  7) =     -8.35553  eV     1   --> G_3            
     e(  8 -  8) =     -8.35225  eV     1   --> G_4            
     e(  9 -  9) =     -8.34633  eV     1   --> G_3            
     e( 10 - 10) =     -8.34214  eV     1   --> G_4            
     e( 11 - 11) =     -5.89297  eV     1   --> G_3            
     e( 12 - 12) =     -5.89160  eV     1   --> G_4            
     e( 13 - 13) =      3.28218  eV     1   --> G_3            
     e( 14 - 14) =      3.30609  eV     1   --> G_4            
     e( 15 - 15) =      5.02142  eV     1   --> G_4            
     e( 16 - 16) =      5.07835  eV     1   --> G_3            
     e( 17 - 17) =      5.92229  eV     1   --> G_3            
     e( 18 - 18) =      5.92598  eV     1   --> G_4            
     e( 19 - 19) =      8.04882  eV     1   --> G_3            
     e( 20 - 20) =      8.10593  eV     1   --> G_4            
     e( 21 - 21) =     10.01872  eV     1   --> G_4            
     e( 22 - 22) =     10.06600  eV     1   --> G_3            
     e( 23 - 23) =     10.21184  eV     1   --> G_3            
     e( 24 - 24) =     10.21608  eV     1   --> G_4            
     e( 25 - 25) =     11.21186  eV     1   --> G_3            
     e( 26 - 26) =     11.22648  eV     1   --> G_4            

 **************************************************************************

 **************************************************************************

                    xk=(   0.09375,   0.05413,   0.15309  )

     Band symmetry, C_s (m)     double point group:

     e(  1 -  1) =     -8.82823  eV     1   --> G_3            
     e(  2 -  2) =     -8.82696  eV     1   --> G_4            
     e(  3 -  3) =     -8.82175  eV     1   --> G_4            
     e(  4 -  4) =     -8.81935  eV     1   --> G_3            
     e(  5 -  5) =     -8.39807  eV     1   --> G_4            
     e(  6 -  6) =     -8.39247  eV     1   --> G_3            
     e(  7 -  7) =     -8.35368  eV     1   --> G_3            
     e(  8 -  8) =     -8.35136  eV     1   --> G_4            
     e(  9 -  9) =     -8.34732  eV     1   --> G_3            
     e( 10 - 10) =     -8.34334  eV     1   --> G_4            
     e( 11 - 11) =     -6.00004  eV     1   --> G_3            
     e( 12 - 12) =     -5.99915  eV     1   --> G_4            
     e( 13 - 13) =      3.74924  eV     1   --> G_3            
     e( 14 - 14) =      3.77069  eV     1   --> G_4            
     e( 15 - 15) =      5.30530  eV     1   --> G_4            
     e( 16 - 16) =      5.35981  eV     1   --> G_3            
     e( 17 - 17) =      5.99443  eV     1   --> G_3            
     e( 18 - 18) =      5.99943  eV     1   --> G_4            
     e( 19 - 19) =      7.86331  eV     1   --> G_3            
     e( 20 - 20) =      7.91254  eV     1   --> G_4            
     e( 21 - 21) =      9.91611  eV     1   --> G_4            
     e( 22 - 22) =      9.95820  eV     1   --> G_3            
     e( 23 - 23) =     10.10024  eV     1   --> G_3            
     e( 24 - 24) =     10.10539  eV     1   --> G_4            
     e( 25 - 25) =     10.89566  eV     1   --> G_3            
     e( 26 - 26) =     10.90913  eV     1   --> G_4            

 **************************************************************************

 **************************************************************************

                    xk=(   0.07500,   0.04330,   0.12247  )

     Band symmetry, C_s (m)     double point group:

     e(  1 -  1) =     -8.82602  eV     1   --> G_3            
     e(  2 -  2) =     -8.82588  eV     1   --> G_4            
     e(  3 -  3) =     -8.82250  eV     1   --> G_4            
     e(  4 -  4) =     -8.82017  eV     1   --> G_3            
     e(  5 -  5) =     -8.39584  eV     1   --> G_4            
     e(  6 -  6) =     -8.39285  eV     1   --> G_3            
     e(  7 -  7) =     -8.35197  eV     1   --> G_3            
     e(  8 -  8) =     -8.35038  eV     1   --> G_4            
     e(  9 -  9) =     -8.34805  eV     1   --> G_3            
     e( 10 - 10) =     -8.34451  eV     1   --> G_4            
     e( 11 - 11) =     -6.08932  eV     1   --> G_3            
     e( 12 - 12) =     -6.08883  eV     1   --> G_4            
     e( 13 - 13) =      4.23075  eV     1   --> G_3            
     e( 14 - 14) =      4.24963  eV     1   --> G_4            
     e( 15 - 15) =      5.55846  eV     1   --> G_4            
     e( 16 - 16) =      5.60886  eV     1   --> G_3            
     e( 17 - 17) =      6.05526  eV     1   --> G_3            
     e( 18 - 18) =      6.06149  eV     1   --> G_4            
     e( 19 - 19) =      7.64235  eV     1   --> G_3            
     e( 20 - 20) =      7.68118  eV     1   --> G_4            
     e( 21 - 21) =      9.84465  eV     1   --> G_4            
     e( 22 - 22) =      9.87958  eV     1   --> G_3            
     e( 23 - 23) =     10.01181  eV     1   --> G_3            
     e( 24 - 24) =     10.01740  eV     1   --> G_4            
     e( 25 - 25) =     10.56417  eV     1   --> G_3            
     e( 26 - 26) =     10.57701  eV     1   --> G_4            

 **************************************************************************

 **************************************************************************

                    xk=(   0.05625,   0.03248,   0.09186  )

     Band symmetry, C_s (m)     double point group:

     e(  1 -  1) =     -8.82487  eV     1   --> G_4            
     e(  2 -  2) =     -8.82440  eV     1   --> G_3            
     e(  3 -  3) =     -8.82296  eV     1   --> G_4            
     e(  4 -  4) =     -8.82096  eV     1   --> G_3            
     e(  5 -  5) =     -8.39425  eV     1   --> G_4            
     e(  6 -  6) =     -8.39295  eV     1   --> G_3            
     e(  7 -  7) =     -8.35047  eV     1   --> G_3            
     e(  8 -  8) =     -8.34943  eV     1   --> G_4            
     e(  9 -  9) =     -8.34850  eV     1   --> G_3            
     e( 10 - 10) =     -8.34562  eV     1   --> G_4            
     e( 11 - 11) =     -6.15982  eV     1   --> G_3            
     e( 12 - 12) =     -6.15960  eV     1   --> G_4            
     e( 13 - 13) =      4.72115  eV     1   --> G_3            
     e( 14 - 14) =      4.73718  eV     1   --> G_4            
     e( 15 - 15) =      5.76624  eV     1   --> G_4            
     e( 16 - 16) =      5.80923  eV     1   --> G_3            
     e( 17 - 17) =      6.11007  eV     1   --> G_3            
     e( 18 - 18) =      6.11644  eV     1   --> G_4            
     e( 19 - 19) =      7.37285  eV     1   --> G_3            
     e( 20 - 20) =      7.39975  eV     1   --> G_4            
     e( 21 - 21) =      9.79768  eV     1   --> G_4            
     e( 22 - 22) =      9.82264  eV     1   --> G_3            
     e( 23 - 23) =      9.94905  eV     1   --> G_3            
     e( 24 - 24) =      9.95377  eV     1   --> G_4            
     e( 25 - 25) =     10.26890  eV     1   --> G_3            
     e( 26 - 26) =     10.28003  eV     1   --> G_4            

 **************************************************************************

 **************************************************************************

                    xk=(   0.03750,   0.02165,   0.06124  )

     Band symmetry, C_s (m)     double point group:

     e(  1 -  1) =     -8.82400  eV     1   --> G_4            
     e(  2 -  2) =     -8.82338  eV     1   --> G_3            
     e(  3 -  3) =     -8.82313  eV     1   --> G_4            
     e(  4 -  4) =     -8.82169  eV     1   --> G_3            
     e(  5 -  5) =     -8.39326  eV     1   --> G_4            
     e(  6 -  6) =     -8.39286  eV     1   --> G_3            
     e(  7 -  7) =     -8.34930  eV     1   --> G_3            
     e(  8 -  9) =     -8.34867  eV     2   --> G_3            
     e(  8 -  9) =     -8.34867  eV     2   --> G_4            
     e( 10 - 10) =     -8.34663  eV     1   --> G_4            
     e( 11 - 12) =     -6.21075  eV     2   --> G_3            
     e( 11 - 12) =     -6.21075  eV     2   --> G_4            
     e( 13 - 13) =      5.21122  eV     1   --> G_3            
     e( 14 - 14) =      5.22376  eV     1   --> G_4            
     e( 15 - 15) =      5.91538  eV     1   --> G_4            
     e( 16 - 16) =      5.94547  eV     1   --> G_3            
     e( 17 - 17) =      6.16552  eV     1   --> G_3            
     e( 18 - 18) =      6.16913  eV     1   --> G_4            
     e( 19 - 19) =      7.04580  eV     1   --> G_3            
     e( 20 - 20) =      7.06100  eV     1   --> G_4            
     e( 21 - 21) =      9.76210  eV     1   --> G_4            
     e( 22 - 22) =      9.77430  eV     1   --> G_3            
     e( 23 - 23) =      9.91394  eV     1   --> G_3            
     e( 24 - 24) =      9.91616  eV     1   --> G_4            
     e( 25 - 25) =     10.05142  eV     1   --> G_3            
     e( 26 - 26) =     10.05796  eV     1   --> G_4            

 **************************************************************************

 **************************************************************************

                    xk=(   0.01875,   0.01083,   0.03062  )

     Band symmetry, C_s (m)     double point group:

     e(  1 -  1) =     -8.82334  eV     1   --> G_4            
     e(  2 -  2) =     -8.82305  eV     1   --> G_4            
     e(  3 -  3) =     -8.82290  eV     1   --> G_3            
     e(  4 -  4) =     -8.82233  eV     1   --> G_3            
     e(  5 -  6) =     -8.39276  eV     2   --> G_3            
     e(  5 -  6) =     -8.39276  eV     2   --> G_4            
     e(  7 -  8) =     -8.34857  eV     2   -->   2 G_3            
     e(  9 -  9) =     -8.34822  eV     1   --> G_4            
     e( 10 - 10) =     -8.34750  eV     1   --> G_4            
     e( 11 - 12) =     -6.24154  eV     2   --> G_3            
     e( 11 - 12) =     -6.24154  eV     2   --> G_4            
     e( 13 - 13) =      5.67457  eV     1   --> G_3            
     e( 14 - 14) =      5.68179  eV     1   --> G_4            
     e( 15 - 15) =      6.01687  eV     1   --> G_4            
     e( 16 - 16) =      6.03026  eV     1   --> G_3            
     e( 17 - 17) =      6.21505  eV     1   --> G_3            
     e( 18 - 18) =      6.21522  eV     1   --> G_4            
     e( 19 - 19) =      6.66436  eV     1   --> G_3            
     e( 20 - 20) =      6.66981  eV     1   --> G_4            
     e( 21 - 21) =      9.72686  eV     1   --> G_4            
     e( 22 - 22) =      9.72894  eV     1   --> G_3            
     e( 23 - 23) =      9.90094  eV     1   --> G_3            
     e( 24 - 24) =      9.90123  eV     1   --> G_4            
     e( 25 - 25) =      9.93269  eV     1   --> G_3            
     e( 26 - 26) =      9.93386  eV     1   --> G_4            

 **************************************************************************

 **************************************************************************

                    xk=(   0.00000,   0.00000,   0.00000  )

     double point group C_3v (3m)  
     there are  6 classes and  3 irreducible representations
     the character table:

       E     -E    2C3   -2C3  3s_v  -3s_v
                                          
G_4    2.00 -2.00  1.00 -1.00  0.00  0.00
G_5    1.00 -1.00 -1.00  1.00  0.00  0.00
G_6    1.00 -1.00 -1.00  1.00  0.00  0.00

     imaginary part

       E     -E    2C3   -2C3  3s_v  -3s_v
                                          
G_4    0.00  0.00  0.00  0.00  0.00  0.00
G_5    0.00  0.00  0.00  0.00  1.00 -1.00
G_6    0.00  0.00  0.00  0.00 -1.00  1.00

     the symmetry operations in each class and the name of the first element:

     E             1
                                                                 
     -E           -1
                                                                 
     2C3           2    3
                                                                 
     -2C3         -2   -3
                                                                 
     3s_v          5    6   -4
                                                                 
     -3s_v         4   -5   -6
                                                                 

     Band symmetry, C_3v (3m)   double point group:

     e(  1 -  4) =     -8.82286  eV     4   --> G_4   L_6      
     e(  1 -  4) =     -8.82286  eV     4   --> G_5   L_4      
     e(  1 -  4) =     -8.82286  eV     4   --> G_6   L_5      
     e(  5 -  6) =     -8.39262  eV     2   --> G_4   L_6      
     e(  7 - 10) =     -8.34815  eV     4   --> G_4   L_6      
     e(  7 - 10) =     -8.34815  eV     4   --> G_5   L_4      
     e(  7 - 10) =     -8.34815  eV     4   --> G_6   L_5      
     e( 11 - 12) =     -6.25184  eV     2   --> G_4   L_6      
     e( 13 - 14) =      5.90629  eV     2   --> G_4   L_6      
     e( 15 - 18) =      6.23499  eV     4   --> G_4   L_6      
     e( 15 - 18) =      6.23499  eV     4   --> G_5   L_4      
     e( 15 - 18) =      6.23499  eV     4   --> G_6   L_5      
     e( 19 - 20) =      6.27984  eV     2   --> G_4   L_6      
     e( 21 - 22) =      9.70810  eV     2   --> G_4   L_6      
     e( 23 - 26) =      9.89842  eV     4   --> G_4   L_6      
     e( 23 - 26) =      9.89842  eV     4   --> G_5   L_4      
     e( 23 - 26) =      9.89842  eV     4   --> G_6   L_5      

 **************************************************************************

     BANDS        :   1m46.20s CPU   1m31.34s WALL


   This run was terminated on:   6:52: 2  18Dec2024            

=------------------------------------------------------------------------------=
   JOB DONE.
=------------------------------------------------------------------------------=
