
     Program BANDS v.7.0 starts on 18Dec2024 at  6:56:34 

     This program is part of the open-source Quantum ESPRESSO suite
     for quantum simulation of materials; please cite
         "P. Giannozzi et al., J. Phys.:Condens. Matter 21 395502 (2009);
         "P. Giannozzi et al., J. Phys.:Condens. Matter 29 465901 (2017);
         "P. Giannozzi et al., J. Chem. Phys. 152 154105 (2020);
          URL http://www.quantum-espresso.org", 
     in publications or presentations arising from this work. More details at
     http://www.quantum-espresso.org/quote

     Parallel version (MPI & OpenMP), running on       2 processor cores
     Number of MPI processes:                 1
     Threads/MPI process:                     2

     MPI processes distributed on     1 nodes
     141 MiB available memory on the printing compute node when the environment starts


     Reading xml data from directory:

     ./outputs/gaas.save/
     file Ga.pbe-dn-kjpaw_psl.1.0.0.UPF: wavefunction(s)  4S renormalized

     IMPORTANT: XC functional enforced from input :
     Exchange-correlation= PBE
                           (   1   4   3   4   0   0   0)
     Any further DFT definition will be discarded
     Please, verify this is what you really want


     G-vector sticks info
     --------------------
     sticks:   dense  smooth     PW     G-vecs:    dense   smooth      PW
     Sum         817     817    241                15353    15353    2445

     Using Slab Decomposition


     Check: negative core charge=   -0.000002
     Reading collected, re-writing distributed wavefunctions
     high-symmetry point:  0.5000 0.2887 0.2041   x coordinate   0.0000
     high-symmetry point:  0.0000 0.0000 0.0000   x coordinate   0.6124
     high-symmetry point:  0.5000-0.2887 0.4082   x coordinate   1.3195
     high-symmetry point:  0.3750 0.2165 0.6124   x coordinate   1.8785
     high-symmetry point:  0.0000 0.0000 0.0000   x coordinate   2.6285

     Plottable bands (eV) written to file GaAs_bands_wo_soc.dat.gnu
     Bands written to file GaAs_bands_wo_soc.dat

 **************************************************************************

                    xk=(   0.50000,   0.28868,   0.20412  )

     point group C_s (m)    
     there are  2 classes
     the character table:

       E     s    
A'     1.00  1.00
A''    1.00 -1.00

     the symmetry operations in each class and the name of the first element:

     E        1
                                                                 
     s        2
                                                                 

     Band symmetry, C_s (m)     point group:

     e(  1 -  1) =     -8.64491  eV     1   --> A'             
     e(  2 -  3) =     -8.56496  eV     2   --> A'             
     e(  2 -  3) =     -8.56496  eV     2   --> A''            
     e(  4 -  5) =     -8.51097  eV     2   --> A'             
     e(  4 -  5) =     -8.51097  eV     2   --> A''            
     e(  6 -  6) =     -4.64375  eV     1   --> A'             
     e(  7 -  7) =     -0.25510  eV     1   --> A'             
     e(  8 -  9) =      5.05542  eV     2   --> A'             
     e(  8 -  9) =      5.05542  eV     2   --> A''            
     e( 10 - 10) =      6.98305  eV     1   --> A'             
     e( 11 - 12) =     10.73879  eV     2   --> A'             
     e( 11 - 12) =     10.73879  eV     2   --> A''            
     e( 13 - 13) =     13.87195  eV     1   --> A'             

 **************************************************************************

 **************************************************************************

                    xk=(   0.47500,   0.27424,   0.19392  )

     Band symmetry, C_s (m)     point group:

     e(  1 -  1) =     -8.64454  eV     1   --> A'             
     e(  2 -  3) =     -8.56502  eV     2   --> A'             
     e(  2 -  3) =     -8.56502  eV     2   --> A''            
     e(  4 -  5) =     -8.51102  eV     2   --> A'             
     e(  4 -  5) =     -8.51102  eV     2   --> A''            
     e(  6 -  6) =     -4.66012  eV     1   --> A'             
     e(  7 -  7) =     -0.22481  eV     1   --> A'             
     e(  8 -  9) =      5.06012  eV     2   --> A'             
     e(  8 -  9) =      5.06012  eV     2   --> A''            
     e( 10 - 10) =      6.98801  eV     1   --> A'             
     e( 11 - 12) =     10.74113  eV     2   --> A'             
     e( 11 - 12) =     10.74113  eV     2   --> A''            
     e( 13 - 13) =     13.87100  eV     1   --> A'             

 **************************************************************************

 **************************************************************************

                    xk=(   0.45000,   0.25981,   0.18371  )

     Band symmetry, C_s (m)     point group:

     e(  1 -  1) =     -8.64355  eV     1   --> A'             
     e(  2 -  3) =     -8.56522  eV     2   --> A'             
     e(  2 -  3) =     -8.56522  eV     2   --> A''            
     e(  4 -  5) =     -8.51122  eV     2   --> A'             
     e(  4 -  5) =     -8.51122  eV     2   --> A''            
     e(  6 -  6) =     -4.70774  eV     1   --> A'             
     e(  7 -  7) =     -0.13548  eV     1   --> A'             
     e(  8 -  9) =      5.07418  eV     2   --> A'             
     e(  8 -  9) =      5.07418  eV     2   --> A''            
     e( 10 - 10) =      7.00271  eV     1   --> A'             
     e( 11 - 12) =     10.74770  eV     2   --> A'             
     e( 11 - 12) =     10.74770  eV     2   --> A''            
     e( 13 - 13) =     13.86431  eV     1   --> A'             

 **************************************************************************

 **************************************************************************

                    xk=(   0.42500,   0.24537,   0.17351  )

     Band symmetry, C_s (m)     point group:

     e(  1 -  1) =     -8.64182  eV     1   --> A'             
     e(  2 -  3) =     -8.56553  eV     2   --> A'             
     e(  2 -  3) =     -8.56553  eV     2   --> A''            
     e(  4 -  5) =     -8.51150  eV     2   --> A'             
     e(  4 -  5) =     -8.51150  eV     2   --> A''            
     e(  6 -  6) =     -4.78258  eV     1   --> A'             
     e(  7 -  7) =      0.00873  eV     1   --> A'             
     e(  8 -  9) =      5.09753  eV     2   --> A'             
     e(  8 -  9) =      5.09753  eV     2   --> A''            
     e( 10 - 10) =      7.02713  eV     1   --> A'             
     e( 11 - 12) =     10.75748  eV     2   --> A'             
     e( 11 - 12) =     10.75748  eV     2   --> A''            
     e( 13 - 13) =     13.83949  eV     1   --> A'             

 **************************************************************************

 **************************************************************************

                    xk=(   0.40000,   0.23094,   0.16330  )

     Band symmetry, C_s (m)     point group:

     e(  1 -  1) =     -8.63945  eV     1   --> A'             
     e(  2 -  3) =     -8.56600  eV     2   --> A'             
     e(  2 -  3) =     -8.56600  eV     2   --> A''            
     e(  4 -  5) =     -8.51184  eV     2   --> A'             
     e(  4 -  5) =     -8.51184  eV     2   --> A''            
     e(  6 -  6) =     -4.87904  eV     1   --> A'             
     e(  7 -  7) =      0.20207  eV     1   --> A'             
     e(  8 -  9) =      5.12994  eV     2   --> A'             
     e(  8 -  9) =      5.12994  eV     2   --> A''            
     e( 10 - 10) =      7.06094  eV     1   --> A'             
     e( 11 - 12) =     10.76845  eV     2   --> A'             
     e( 11 - 12) =     10.76845  eV     2   --> A''            
     e( 13 - 13) =     13.76944  eV     1   --> A'             

 **************************************************************************

 **************************************************************************

                    xk=(   0.37500,   0.21651,   0.15309  )

     Band symmetry, C_s (m)     point group:

     e(  1 -  1) =     -8.63649  eV     1   --> A'             
     e(  2 -  3) =     -8.56662  eV     2   --> A'             
     e(  2 -  3) =     -8.56662  eV     2   --> A''            
     e(  4 -  5) =     -8.51227  eV     2   --> A'             
     e(  4 -  5) =     -8.51227  eV     2   --> A''            
     e(  6 -  6) =     -4.99113  eV     1   --> A'             
     e(  7 -  7) =      0.43823  eV     1   --> A'             
     e(  8 -  9) =      5.17116  eV     2   --> A'             
     e(  8 -  9) =      5.17116  eV     2   --> A''            
     e( 10 - 10) =      7.10362  eV     1   --> A'             
     e( 11 - 12) =     10.77785  eV     2   --> A'             
     e( 11 - 12) =     10.77785  eV     2   --> A''            
     e( 13 - 13) =     13.61465  eV     1   --> A'             

 **************************************************************************

 **************************************************************************

                    xk=(   0.35000,   0.20207,   0.14289  )

     Band symmetry, C_s (m)     point group:

     e(  1 -  1) =     -8.63297  eV     1   --> A'             
     e(  2 -  3) =     -8.56738  eV     2   --> A'             
     e(  2 -  3) =     -8.56738  eV     2   --> A''            
     e(  4 -  5) =     -8.51272  eV     2   --> A'             
     e(  4 -  5) =     -8.51272  eV     2   --> A''            
     e(  6 -  6) =     -5.11317  eV     1   --> A'             
     e(  7 -  7) =      0.71118  eV     1   --> A'             
     e(  8 -  9) =      5.22086  eV     2   --> A'             
     e(  8 -  9) =      5.22086  eV     2   --> A''            
     e( 10 - 10) =      7.15452  eV     1   --> A'             
     e( 11 - 12) =     10.78223  eV     2   --> A'             
     e( 11 - 12) =     10.78223  eV     2   --> A''            
     e( 13 - 13) =     13.35563  eV     1   --> A'             

 **************************************************************************

 **************************************************************************

                    xk=(   0.32500,   0.18764,   0.13268  )

     Band symmetry, C_s (m)     point group:

     e(  1 -  1) =     -8.62898  eV     1   --> A'             
     e(  2 -  3) =     -8.56829  eV     2   --> A'             
     e(  2 -  3) =     -8.56829  eV     2   --> A''            
     e(  4 -  5) =     -8.51316  eV     2   --> A'             
     e(  4 -  5) =     -8.51316  eV     2   --> A''            
     e(  6 -  6) =     -5.24023  eV     1   --> A'             
     e(  7 -  7) =      1.01552  eV     1   --> A'             
     e(  8 -  9) =      5.27853  eV     2   --> A'             
     e(  8 -  9) =      5.27853  eV     2   --> A''            
     e( 10 - 10) =      7.21259  eV     1   --> A'             
     e( 11 - 12) =     10.77747  eV     2   --> A'             
     e( 11 - 12) =     10.77747  eV     2   --> A''            
     e( 13 - 13) =     13.01778  eV     1   --> A'             

 **************************************************************************

 **************************************************************************

                    xk=(   0.30000,   0.17321,   0.12247  )

     Band symmetry, C_s (m)     point group:

     e(  1 -  1) =     -8.62460  eV     1   --> A'             
     e(  2 -  3) =     -8.56932  eV     2   --> A'             
     e(  2 -  3) =     -8.56932  eV     2   --> A''            
     e(  4 -  5) =     -8.51358  eV     2   --> A'             
     e(  4 -  5) =     -8.51358  eV     2   --> A''            
     e(  6 -  6) =     -5.36824  eV     1   --> A'             
     e(  7 -  7) =      1.34661  eV     1   --> A'             
     e(  8 -  9) =      5.34359  eV     2   --> A'             
     e(  8 -  9) =      5.34359  eV     2   --> A''            
     e( 10 - 10) =      7.27628  eV     1   --> A'             
     e( 11 - 12) =     10.75931  eV     2   --> A'             
     e( 11 - 12) =     10.75931  eV     2   --> A''            
     e( 13 - 13) =     12.63896  eV     1   --> A'             

 **************************************************************************

 **************************************************************************

                    xk=(   0.27500,   0.15877,   0.11227  )

     Band symmetry, C_s (m)     point group:

     e(  1 -  1) =     -8.61991  eV     1   --> A'             
     e(  2 -  3) =     -8.57049  eV     2   --> A'             
     e(  2 -  3) =     -8.57049  eV     2   --> A''            
     e(  4 -  5) =     -8.51396  eV     2   --> A'             
     e(  4 -  5) =     -8.51396  eV     2   --> A''            
     e(  6 -  6) =     -5.49392  eV     1   --> A'             
     e(  7 -  7) =      1.70046  eV     1   --> A'             
     e(  8 -  9) =      5.41521  eV     2   --> A'             
     e(  8 -  9) =      5.41521  eV     2   --> A''            
     e( 10 - 10) =      7.34339  eV     1   --> A'             
     e( 11 - 12) =     10.72383  eV     2   --> A'             
     e( 11 - 12) =     10.72383  eV     2   --> A''            
     e( 13 - 13) =     12.24490  eV     1   --> A'             

 **************************************************************************

 **************************************************************************

                    xk=(   0.25000,   0.14434,   0.10206  )

     Band symmetry, C_s (m)     point group:

     e(  1 -  1) =     -8.61507  eV     1   --> A'             
     e(  2 -  3) =     -8.57173  eV     2   --> A'             
     e(  2 -  3) =     -8.57173  eV     2   --> A''            
     e(  4 -  5) =     -8.51428  eV     2   --> A'             
     e(  4 -  5) =     -8.51428  eV     2   --> A''            
     e(  6 -  6) =     -5.61468  eV     1   --> A'             
     e(  7 -  7) =      2.07359  eV     1   --> A'             
     e(  8 -  9) =      5.49244  eV     2   --> A'             
     e(  8 -  9) =      5.49244  eV     2   --> A''            
     e( 10 - 10) =      7.41057  eV     1   --> A'             
     e( 11 - 12) =     10.66857  eV     2   --> A'             
     e( 11 - 12) =     10.66857  eV     2   --> A''            
     e( 13 - 13) =     11.85049  eV     1   --> A'             

 **************************************************************************

 **************************************************************************

                    xk=(   0.22500,   0.12990,   0.09186  )

     Band symmetry, C_s (m)     point group:

     e(  1 -  1) =     -8.61008  eV     1   --> A'             
     e(  2 -  3) =     -8.57307  eV     2   --> A'             
     e(  2 -  3) =     -8.57307  eV     2   --> A''            
     e(  4 -  5) =     -8.51454  eV     2   --> A'             
     e(  4 -  5) =     -8.51454  eV     2   --> A''            
     e(  6 -  6) =     -5.72844  eV     1   --> A'             
     e(  7 -  7) =      2.46297  eV     1   --> A'             
     e(  8 -  9) =      5.57397  eV     2   --> A'             
     e(  8 -  9) =      5.57397  eV     2   --> A''            
     e( 10 - 10) =      7.47300  eV     1   --> A'             
     e( 11 - 12) =     10.59304  eV     2   --> A'             
     e( 11 - 12) =     10.59304  eV     2   --> A''            
     e( 13 - 13) =     11.46606  eV     1   --> A'             

 **************************************************************************

 **************************************************************************

                    xk=(   0.20000,   0.11547,   0.08165  )

     Band symmetry, C_s (m)     point group:

     e(  1 -  1) =     -8.60512  eV     1   --> A'             
     e(  2 -  3) =     -8.57442  eV     2   --> A'             
     e(  2 -  3) =     -8.57442  eV     2   --> A''            
     e(  4 -  5) =     -8.51472  eV     2   --> A'             
     e(  4 -  5) =     -8.51472  eV     2   --> A''            
     e(  6 -  6) =     -5.83360  eV     1   --> A'             
     e(  7 -  7) =      2.86575  eV     1   --> A'             
     e(  8 -  9) =      5.65826  eV     2   --> A'             
     e(  8 -  9) =      5.65826  eV     2   --> A''            
     e( 10 - 10) =      7.52343  eV     1   --> A'             
     e( 11 - 12) =     10.49947  eV     2   --> A'             
     e( 11 - 12) =     10.49947  eV     2   --> A''            
     e( 13 - 13) =     11.10047  eV     1   --> A'             

 **************************************************************************

 **************************************************************************

                    xk=(   0.17500,   0.10104,   0.07144  )

     Band symmetry, C_s (m)     point group:

     e(  1 -  1) =     -8.60031  eV     1   --> A'             
     e(  2 -  3) =     -8.57578  eV     2   --> A'             
     e(  2 -  3) =     -8.57578  eV     2   --> A''            
     e(  4 -  5) =     -8.51485  eV     2   --> A'             
     e(  4 -  5) =     -8.51485  eV     2   --> A''            
     e(  6 -  6) =     -5.92887  eV     1   --> A'             
     e(  7 -  7) =      3.27916  eV     1   --> A'             
     e(  8 -  9) =      5.74336  eV     2   --> A'             
     e(  8 -  9) =      5.74336  eV     2   --> A''            
     e( 10 - 10) =      7.55148  eV     1   --> A'             
     e( 11 - 12) =     10.39236  eV     2   --> A'             
     e( 11 - 12) =     10.39236  eV     2   --> A''            
     e( 13 - 13) =     10.76368  eV     1   --> A'             

 **************************************************************************

 **************************************************************************

                    xk=(   0.15000,   0.08660,   0.06124  )

     Band symmetry, C_s (m)     point group:

     e(  1 -  1) =     -8.59577  eV     1   --> A'             
     e(  2 -  3) =     -8.57704  eV     2   --> A'             
     e(  2 -  3) =     -8.57704  eV     2   --> A''            
     e(  4 -  5) =     -8.51491  eV     2   --> A'             
     e(  4 -  5) =     -8.51491  eV     2   --> A''            
     e(  6 -  6) =     -6.01321  eV     1   --> A'             
     e(  7 -  7) =      3.70044  eV     1   --> A'             
     e(  8 -  9) =      5.82702  eV     2   --> A'             
     e(  8 -  9) =      5.82702  eV     2   --> A''            
     e( 10 - 10) =      7.54315  eV     1   --> A'             
     e( 11 - 12) =     10.27808  eV     2   --> A'             
     e( 11 - 12) =     10.27808  eV     2   --> A''            
     e( 13 - 13) =     10.46777  eV     1   --> A'             

 **************************************************************************

 **************************************************************************

                    xk=(   0.12500,   0.07217,   0.05103  )

     Band symmetry, C_s (m)     point group:

     e(  1 -  1) =     -8.59161  eV     1   --> A'             
     e(  2 -  3) =     -8.57821  eV     2   --> A'             
     e(  2 -  3) =     -8.57821  eV     2   --> A''            
     e(  4 -  5) =     -8.51492  eV     2   --> A'             
     e(  4 -  5) =     -8.51492  eV     2   --> A''            
     e(  6 -  6) =     -6.08582  eV     1   --> A'             
     e(  7 -  7) =      4.12665  eV     1   --> A'             
     e(  8 -  9) =      5.90637  eV     2   --> A'             
     e(  8 -  9) =      5.90637  eV     2   --> A''            
     e( 10 - 10) =      7.48209  eV     1   --> A'             
     e( 11 - 12) =     10.16385  eV     2   --> A'             
     e( 11 - 12) =     10.16385  eV     2   --> A''            
     e( 13 - 13) =     10.22583  eV     1   --> A'             

 **************************************************************************

 **************************************************************************

                    xk=(   0.10000,   0.05774,   0.04082  )

     Band symmetry, C_s (m)     point group:

     e(  1 -  1) =     -8.58804  eV     1   --> A'             
     e(  2 -  3) =     -8.57920  eV     2   --> A'             
     e(  2 -  3) =     -8.57920  eV     2   --> A''            
     e(  4 -  5) =     -8.51490  eV     2   --> A'             
     e(  4 -  5) =     -8.51490  eV     2   --> A''            
     e(  6 -  6) =     -6.14604  eV     1   --> A'             
     e(  7 -  7) =      4.55446  eV     1   --> A'             
     e(  8 -  9) =      5.97833  eV     2   --> A'             
     e(  8 -  9) =      5.97833  eV     2   --> A''            
     e( 10 - 10) =      7.35414  eV     1   --> A'             
     e( 11 - 11) =     10.04732  eV     1   --> A'             
     e( 12 - 13) =     10.05719  eV     2   --> A'             
     e( 12 - 13) =     10.05719  eV     2   --> A''            

 **************************************************************************

 **************************************************************************

                    xk=(   0.07500,   0.04330,   0.03062  )

     Band symmetry, C_s (m)     point group:

     e(  1 -  1) =     -8.58513  eV     1   --> A'             
     e(  2 -  3) =     -8.58005  eV     2   --> A'             
     e(  2 -  3) =     -8.58005  eV     2   --> A''            
     e(  4 -  5) =     -8.51491  eV     2   --> A'             
     e(  4 -  5) =     -8.51491  eV     2   --> A''            
     e(  6 -  6) =     -6.19338  eV     1   --> A'             
     e(  7 -  7) =      4.98011  eV     1   --> A'             
     e(  8 -  9) =      6.03931  eV     2   --> A'             
     e(  8 -  9) =      6.03931  eV     2   --> A''            
     e( 10 - 10) =      7.15388  eV     1   --> A'             
     e( 11 - 11) =      9.93241  eV     1   --> A'             
     e( 12 - 13) =      9.96524  eV     2   --> A'             
     e( 12 - 13) =      9.96524  eV     2   --> A''            

 **************************************************************************

 **************************************************************************

                    xk=(   0.05000,   0.02887,   0.02041  )

     Band symmetry, C_s (m)     point group:

     e(  1 -  1) =     -8.58296  eV     1   --> A'             
     e(  2 -  3) =     -8.58067  eV     2   --> A'             
     e(  2 -  3) =     -8.58067  eV     2   --> A''            
     e(  4 -  5) =     -8.51492  eV     2   --> A'             
     e(  4 -  5) =     -8.51492  eV     2   --> A''            
     e(  6 -  6) =     -6.22746  eV     1   --> A'             
     e(  7 -  7) =      5.39886  eV     1   --> A'             
     e(  8 -  9) =      6.08599  eV     2   --> A'             
     e(  8 -  9) =      6.08599  eV     2   --> A''            
     e( 10 - 10) =      6.88737  eV     1   --> A'             
     e( 11 - 11) =      9.86966  eV     1   --> A'             
     e( 12 - 13) =      9.89436  eV     2   --> A'             
     e( 12 - 13) =      9.89436  eV     2   --> A''            

 **************************************************************************

 **************************************************************************

                    xk=(   0.02500,   0.01443,   0.01021  )

     Band symmetry, C_s (m)     point group:

     e(  1 -  1) =     -8.58163  eV     1   --> A'             
     e(  2 -  3) =     -8.58106  eV     2   --> A'             
     e(  2 -  3) =     -8.58106  eV     2   --> A''            
     e(  4 -  5) =     -8.51491  eV     2   --> A'             
     e(  4 -  5) =     -8.51491  eV     2   --> A''            
     e(  6 -  6) =     -6.24801  eV     1   --> A'             
     e(  7 -  7) =      5.80345  eV     1   --> A'             
     e(  8 -  9) =      6.11540  eV     2   --> A'             
     e(  8 -  9) =      6.11540  eV     2   --> A''            
     e( 10 - 10) =      6.56931  eV     1   --> A'             
     e( 11 - 11) =      9.84178  eV     1   --> A'             
     e( 12 - 13) =      9.84962  eV     2   --> A'             
     e( 12 - 13) =      9.84962  eV     2   --> A''            

 **************************************************************************

 **************************************************************************

                    xk=(   0.00000,   0.00000,   0.00000  )

     point group C_3v (3m)  
     there are  3 classes
     the character table:

       E     2C3   3s_v 
A_1    1.00  1.00  1.00
A_2    1.00  1.00 -1.00
E      2.00 -1.00  0.00

     the symmetry operations in each class and the name of the first element:

     E        1
                                                                 
     2C3      2    3
                                                                 
     3s_v     4    5    6
                                                                 

     Band symmetry, C_3v (3m)   point group:

     e(  1 -  3) =     -8.58119  eV     3   --> A_1  L_1       
     e(  1 -  3) =     -8.58119  eV     3   --> E    L_3       
     e(  4 -  5) =     -8.51490  eV     2   --> E    L_3       
     e(  6 -  6) =     -6.25488  eV     1   --> A_1  L_1       
     e(  7 -  9) =      6.12545  eV     3   --> A_1  L_1       
     e(  7 -  9) =      6.12545  eV     3   --> E    L_3       
     e( 10 - 10) =      6.27524  eV     1   --> A_1  L_1       
     e( 11 - 13) =      9.83433  eV     3   --> A_1  L_1       
     e( 11 - 13) =      9.83433  eV     3   --> E    L_3       

 **************************************************************************

 **************************************************************************

                    xk=(   0.02500,  -0.01443,   0.02041  )

     point group C_s (m)    
     there are  2 classes
     the character table:

       E     s    
A'     1.00  1.00
A''    1.00 -1.00

     the symmetry operations in each class and the name of the first element:

     E        1
                                                                 
     s        2
                                                                 

     Band symmetry, C_s (m)     point group:

     e(  1 -  1) =     -8.58193  eV     1   --> A'             
     e(  2 -  3) =     -8.58094  eV     2   --> A'             
     e(  2 -  3) =     -8.58094  eV     2   --> A''            
     e(  4 -  4) =     -8.51499  eV     1   --> A'             
     e(  5 -  5) =     -8.51483  eV     1   --> A''            
     e(  6 -  6) =     -6.24572  eV     1   --> A'             
     e(  7 -  7) =      5.76113  eV     1   --> A'             
     e(  8 -  9) =      6.09455  eV     2   --> A'             
     e(  8 -  9) =      6.09455  eV     2   --> A''            
     e( 10 - 10) =      6.63816  eV     1   --> A'             
     e( 11 - 11) =      9.79885  eV     1   --> A'             
     e( 12 - 13) =      9.87715  eV     2   --> A'             
     e( 12 - 13) =      9.87715  eV     2   --> A''            

 **************************************************************************

 **************************************************************************

                    xk=(   0.05000,  -0.02887,   0.04082  )

     Band symmetry, C_s (m)     point group:

     e(  1 -  1) =     -8.58411  eV     1   --> A'             
     e(  2 -  3) =     -8.58021  eV     2   --> A'             
     e(  2 -  3) =     -8.58021  eV     2   --> A''            
     e(  4 -  4) =     -8.51523  eV     1   --> A'             
     e(  5 -  5) =     -8.51461  eV     1   --> A''            
     e(  6 -  6) =     -6.21832  eV     1   --> A'             
     e(  7 -  7) =      5.33266  eV     1   --> A'             
     e(  8 -  9) =      6.00627  eV     2   --> A'             
     e(  8 -  9) =      6.00627  eV     2   --> A''            
     e( 10 - 10) =      7.06108  eV     1   --> A'             
     e( 11 - 11) =      9.69942  eV     1   --> A'             
     e( 12 - 13) =     10.00114  eV     2   --> A'             
     e( 12 - 13) =     10.00114  eV     2   --> A''            

 **************************************************************************

 **************************************************************************

                    xk=(   0.07500,  -0.04330,   0.06124  )

     Band symmetry, C_s (m)     point group:

     e(  1 -  1) =     -8.58764  eV     1   --> A'             
     e(  2 -  3) =     -8.57902  eV     2   --> A'             
     e(  2 -  3) =     -8.57902  eV     2   --> A''            
     e(  4 -  4) =     -8.51570  eV     1   --> A'             
     e(  5 -  5) =     -8.51424  eV     1   --> A''            
     e(  6 -  6) =     -6.17288  eV     1   --> A'             
     e(  7 -  7) =      4.90487  eV     1   --> A'             
     e(  8 -  9) =      5.87170  eV     2   --> A'             
     e(  8 -  9) =      5.87170  eV     2   --> A''            
     e( 10 - 10) =      7.47474  eV     1   --> A'             
     e( 11 - 11) =      9.55339  eV     1   --> A'             
     e( 12 - 13) =     10.19499  eV     2   --> A'             
     e( 12 - 13) =     10.19499  eV     2   --> A''            

 **************************************************************************

 **************************************************************************

                    xk=(   0.10000,  -0.05774,   0.08165  )

     Band symmetry, C_s (m)     point group:

     e(  1 -  1) =     -8.59230  eV     1   --> A'             
     e(  2 -  3) =     -8.57737  eV     2   --> A'             
     e(  2 -  3) =     -8.57737  eV     2   --> A''            
     e(  4 -  4) =     -8.51637  eV     1   --> A'             
     e(  5 -  5) =     -8.51375  eV     1   --> A''            
     e(  6 -  6) =     -6.10973  eV     1   --> A'             
     e(  7 -  7) =      4.48055  eV     1   --> A'             
     e(  8 -  9) =      5.70439  eV     2   --> A'             
     e(  8 -  9) =      5.70439  eV     2   --> A''            
     e( 10 - 10) =      7.86716  eV     1   --> A'             
     e( 11 - 11) =      9.38240  eV     1   --> A'             
     e( 12 - 13) =     10.44499  eV     2   --> A'             
     e( 12 - 13) =     10.44499  eV     2   --> A''            

 **************************************************************************

 **************************************************************************

                    xk=(   0.12500,  -0.07217,   0.10206  )

     Band symmetry, C_s (m)     point group:

     e(  1 -  1) =     -8.59796  eV     1   --> A'             
     e(  2 -  3) =     -8.57533  eV     2   --> A'             
     e(  2 -  3) =     -8.57533  eV     2   --> A''            
     e(  4 -  4) =     -8.51723  eV     1   --> A'             
     e(  5 -  5) =     -8.51312  eV     1   --> A''            
     e(  6 -  6) =     -6.02935  eV     1   --> A'             
     e(  7 -  7) =      4.06085  eV     1   --> A'             
     e(  8 -  9) =      5.51667  eV     2   --> A'             
     e(  8 -  9) =      5.51667  eV     2   --> A''            
     e( 10 - 10) =      8.21740  eV     1   --> A'             
     e( 11 - 11) =      9.21219  eV     1   --> A'             
     e( 12 - 13) =     10.73841  eV     2   --> A'             
     e( 12 - 13) =     10.73841  eV     2   --> A''            

 **************************************************************************

 **************************************************************************

                    xk=(   0.15000,  -0.08660,   0.12247  )

     Band symmetry, C_s (m)     point group:

     e(  1 -  1) =     -8.60433  eV     1   --> A'             
     e(  2 -  3) =     -8.57294  eV     2   --> A'             
     e(  2 -  3) =     -8.57294  eV     2   --> A''            
     e(  4 -  4) =     -8.51832  eV     1   --> A'             
     e(  5 -  5) =     -8.51240  eV     1   --> A''            
     e(  6 -  6) =     -5.93232  eV     1   --> A'             
     e(  7 -  7) =      3.64661  eV     1   --> A'             
     e(  8 -  9) =      5.31854  eV     2   --> A'             
     e(  8 -  9) =      5.31854  eV     2   --> A''            
     e( 10 - 10) =      8.47302  eV     1   --> A'             
     e( 11 - 11) =      9.09168  eV     1   --> A'             
     e( 12 - 13) =     11.06483  eV     2   --> A'             
     e( 12 - 13) =     11.06483  eV     2   --> A''            

 **************************************************************************

 **************************************************************************

                    xk=(   0.17500,  -0.10104,   0.14289  )

     Band symmetry, C_s (m)     point group:

     e(  1 -  1) =     -8.61124  eV     1   --> A'             
     e(  2 -  3) =     -8.57025  eV     2   --> A'             
     e(  2 -  3) =     -8.57025  eV     2   --> A''            
     e(  4 -  4) =     -8.51958  eV     1   --> A'             
     e(  5 -  5) =     -8.51160  eV     1   --> A''            
     e(  6 -  6) =     -5.81937  eV     1   --> A'             
     e(  7 -  7) =      3.23849  eV     1   --> A'             
     e(  8 -  9) =      5.11764  eV     2   --> A'             
     e(  8 -  9) =      5.11764  eV     2   --> A''            
     e( 10 - 10) =      8.52871  eV     1   --> A'             
     e( 11 - 11) =      9.11370  eV     1   --> A'             
     e( 12 - 13) =     11.41622  eV     2   --> A'             
     e( 12 - 13) =     11.41622  eV     2   --> A''            

 **************************************************************************

 **************************************************************************

                    xk=(   0.20000,  -0.11547,   0.16330  )

     Band symmetry, C_s (m)     point group:

     e(  1 -  1) =     -8.61842  eV     1   --> A'             
     e(  2 -  3) =     -8.56730  eV     2   --> A'             
     e(  2 -  3) =     -8.56730  eV     2   --> A''            
     e(  4 -  4) =     -8.52097  eV     1   --> A'             
     e(  5 -  5) =     -8.51071  eV     1   --> A''            
     e(  6 -  6) =     -5.69139  eV     1   --> A'             
     e(  7 -  7) =      2.83734  eV     1   --> A'             
     e(  8 -  9) =      4.91956  eV     2   --> A'             
     e(  8 -  9) =      4.91956  eV     2   --> A''            
     e( 10 - 10) =      8.42196  eV     1   --> A'             
     e( 11 - 11) =      9.22281  eV     1   --> A'             
     e( 12 - 13) =     11.78666  eV     2   --> A'             
     e( 12 - 13) =     11.78666  eV     2   --> A''            

 **************************************************************************

 **************************************************************************

                    xk=(   0.22500,  -0.12990,   0.18371  )

     Band symmetry, C_s (m)     point group:

     e(  1 -  1) =     -8.62570  eV     1   --> A'             
     e(  2 -  3) =     -8.56420  eV     2   --> A'             
     e(  2 -  3) =     -8.56420  eV     2   --> A''            
     e(  4 -  4) =     -8.52252  eV     1   --> A'             
     e(  5 -  5) =     -8.50980  eV     1   --> A''            
     e(  6 -  6) =     -5.54948  eV     1   --> A'             
     e(  7 -  7) =      2.44399  eV     1   --> A'             
     e(  8 -  9) =      4.72841  eV     2   --> A'             
     e(  8 -  9) =      4.72841  eV     2   --> A''            
     e( 10 - 10) =      8.27386  eV     1   --> A'             
     e( 11 - 11) =      9.28364  eV     1   --> A'             
     e( 12 - 13) =     12.17140  eV     2   --> A'             
     e( 12 - 13) =     12.17140  eV     2   --> A''            

 **************************************************************************

 **************************************************************************

                    xk=(   0.25000,  -0.14434,   0.20412  )

     Band symmetry, C_s (m)     point group:

     e(  1 -  1) =     -8.63286  eV     1   --> A'             
     e(  2 -  3) =     -8.56096  eV     2   --> A'             
     e(  2 -  3) =     -8.56096  eV     2   --> A''            
     e(  4 -  4) =     -8.52409  eV     1   --> A'             
     e(  5 -  5) =     -8.50886  eV     1   --> A''            
     e(  6 -  6) =     -5.39497  eV     1   --> A'             
     e(  7 -  7) =      2.05969  eV     1   --> A'             
     e(  8 -  9) =      4.54736  eV     2   --> A'             
     e(  8 -  9) =      4.54736  eV     2   --> A''            
     e( 10 - 10) =      8.12575  eV     1   --> A'             
     e( 11 - 11) =      9.25710  eV     1   --> A'             
     e( 12 - 13) =     12.56705  eV     2   --> A'             
     e( 12 - 13) =     12.56705  eV     2   --> A''            

 **************************************************************************

 **************************************************************************

                    xk=(   0.27500,  -0.15877,   0.22454  )

     Band symmetry, C_s (m)     point group:

     e(  1 -  1) =     -8.63978  eV     1   --> A'             
     e(  2 -  3) =     -8.55772  eV     2   --> A'             
     e(  2 -  3) =     -8.55772  eV     2   --> A''            
     e(  4 -  4) =     -8.52574  eV     1   --> A'             
     e(  5 -  5) =     -8.50791  eV     1   --> A''            
     e(  6 -  6) =     -5.22956  eV     1   --> A'             
     e(  7 -  7) =      1.68597  eV     1   --> A'             
     e(  8 -  9) =      4.37867  eV     2   --> A'             
     e(  8 -  9) =      4.37867  eV     2   --> A''            
     e( 10 - 10) =      7.98974  eV     1   --> A'             
     e( 11 - 11) =      9.15220  eV     1   --> A'             
     e( 12 - 13) =     12.97042  eV     2   --> A'             
     e( 12 - 13) =     12.97042  eV     2   --> A''            

 **************************************************************************

 **************************************************************************

                    xk=(   0.30000,  -0.17321,   0.24495  )

     Band symmetry, C_s (m)     point group:

     e(  1 -  1) =     -8.64635  eV     1   --> A'             
     e(  2 -  3) =     -8.55454  eV     2   --> A'             
     e(  2 -  3) =     -8.55454  eV     2   --> A''            
     e(  4 -  4) =     -8.52739  eV     1   --> A'             
     e(  5 -  5) =     -8.50702  eV     1   --> A''            
     e(  6 -  6) =     -5.05543  eV     1   --> A'             
     e(  7 -  7) =      1.32495  eV     1   --> A'             
     e(  8 -  9) =      4.22415  eV     2   --> A'             
     e(  8 -  9) =      4.22415  eV     2   --> A''            
     e( 10 - 10) =      7.87079  eV     1   --> A'             
     e( 11 - 11) =      8.99432  eV     1   --> A'             
     e( 12 - 13) =     13.37877  eV     2   --> A'             
     e( 12 - 13) =     13.37877  eV     2   --> A''            

 **************************************************************************

 **************************************************************************

                    xk=(   0.32500,  -0.18764,   0.26536  )

     Band symmetry, C_s (m)     point group:

     e(  1 -  1) =     -8.65236  eV     1   --> A'             
     e(  2 -  3) =     -8.55150  eV     2   --> A'             
     e(  2 -  3) =     -8.55150  eV     2   --> A''            
     e(  4 -  4) =     -8.52902  eV     1   --> A'             
     e(  5 -  5) =     -8.50615  eV     1   --> A''            
     e(  6 -  6) =     -4.87544  eV     1   --> A'             
     e(  7 -  7) =      0.97959  eV     1   --> A'             
     e(  8 -  9) =      4.08522  eV     2   --> A'             
     e(  8 -  9) =      4.08522  eV     2   --> A''            
     e( 10 - 10) =      7.77161  eV     1   --> A'             
     e( 11 - 11) =      8.80856  eV     1   --> A'             
     e( 12 - 13) =     13.78915  eV     2   --> A'             
     e( 12 - 13) =     13.78915  eV     2   --> A''            

 **************************************************************************

 **************************************************************************

                    xk=(   0.35000,  -0.20207,   0.28577  )

     Band symmetry, C_s (m)     point group:

     e(  1 -  1) =     -8.65777  eV     1   --> A'             
     e(  2 -  3) =     -8.54867  eV     2   --> A'             
     e(  2 -  3) =     -8.54867  eV     2   --> A''            
     e(  4 -  4) =     -8.53050  eV     1   --> A'             
     e(  5 -  5) =     -8.50534  eV     1   --> A''            
     e(  6 -  6) =     -4.69340  eV     1   --> A'             
     e(  7 -  7) =      0.65371  eV     1   --> A'             
     e(  8 -  9) =      3.96295  eV     2   --> A'             
     e(  8 -  9) =      3.96295  eV     2   --> A''            
     e( 10 - 10) =      7.69384  eV     1   --> A'             
     e( 11 - 11) =      8.61417  eV     1   --> A'             
     e( 12 - 13) =     14.19789  eV     2   --> A'             
     e( 12 - 13) =     14.19789  eV     2   --> A''            

 **************************************************************************

 **************************************************************************

                    xk=(   0.37500,  -0.21651,   0.30619  )

     Band symmetry, C_s (m)     point group:

     e(  1 -  1) =     -8.66247  eV     1   --> A'             
     e(  2 -  3) =     -8.54609  eV     2   --> A'             
     e(  2 -  3) =     -8.54609  eV     2   --> A''            
     e(  4 -  4) =     -8.53185  eV     1   --> A'             
     e(  5 -  5) =     -8.50460  eV     1   --> A''            
     e(  6 -  6) =     -4.51444  eV     1   --> A'             
     e(  7 -  7) =      0.35261  eV     1   --> A'             
     e(  8 -  9) =      3.85823  eV     2   --> A'             
     e(  8 -  9) =      3.85823  eV     2   --> A''            
     e( 10 - 10) =      7.63855  eV     1   --> A'             
     e( 11 - 11) =      8.42408  eV     1   --> A'             
     e( 12 - 13) =     14.59965  eV     2   --> A'             
     e( 12 - 13) =     14.59965  eV     2   --> A''            

 **************************************************************************

 **************************************************************************

                    xk=(   0.40000,  -0.23094,   0.32660  )

     Band symmetry, C_s (m)     point group:

     e(  1 -  1) =     -8.66642  eV     1   --> A'             
     e(  2 -  3) =     -8.54396  eV     2   --> A'             
     e(  2 -  3) =     -8.54396  eV     2   --> A''            
     e(  4 -  4) =     -8.53304  eV     1   --> A'             
     e(  5 -  5) =     -8.50404  eV     1   --> A''            
     e(  6 -  6) =     -4.34541  eV     1   --> A'             
     e(  7 -  7) =      0.08330  eV     1   --> A'             
     e(  8 -  9) =      3.77168  eV     2   --> A'             
     e(  8 -  9) =      3.77168  eV     2   --> A''            
     e( 10 - 10) =      7.60641  eV     1   --> A'             
     e( 11 - 11) =      8.24675  eV     1   --> A'             
     e( 12 - 13) =     14.98531  eV     2   --> A'             
     e( 12 - 13) =     14.98531  eV     2   --> A''            

 **************************************************************************

 **************************************************************************

                    xk=(   0.42500,  -0.24537,   0.34701  )

     Band symmetry, C_s (m)     point group:

     e(  1 -  1) =     -8.66954  eV     1   --> A'             
     e(  2 -  3) =     -8.54218  eV     2   --> A'             
     e(  2 -  3) =     -8.54218  eV     2   --> A''            
     e(  4 -  4) =     -8.53392  eV     1   --> A'             
     e(  5 -  5) =     -8.50355  eV     1   --> A''            
     e(  6 -  6) =     -4.19529  eV     1   --> A'             
     e(  7 -  7) =     -0.14504  eV     1   --> A'             
     e(  8 -  9) =      3.70387  eV     2   --> A'             
     e(  8 -  9) =      3.70387  eV     2   --> A''            
     e( 10 - 10) =      7.59784  eV     1   --> A'             
     e( 11 - 11) =      8.08799  eV     1   --> A'             
     e( 12 - 13) =     15.34083  eV     2   --> A'             
     e( 12 - 13) =     15.34083  eV     2   --> A''            

 **************************************************************************

 **************************************************************************

                    xk=(   0.45000,  -0.25981,   0.36742  )

     Band symmetry, C_s (m)     point group:

     e(  1 -  1) =     -8.67177  eV     1   --> A'             
     e(  2 -  3) =     -8.54089  eV     2   --> A'             
     e(  2 -  3) =     -8.54089  eV     2   --> A''            
     e(  4 -  4) =     -8.53464  eV     1   --> A'             
     e(  5 -  5) =     -8.50317  eV     1   --> A''            
     e(  6 -  6) =     -4.07503  eV     1   --> A'             
     e(  7 -  7) =     -0.32131  eV     1   --> A'             
     e(  8 -  9) =      3.65517  eV     2   --> A'             
     e(  8 -  9) =      3.65517  eV     2   --> A''            
     e( 10 - 10) =      7.61230  eV     1   --> A'             
     e( 11 - 11) =      7.95168  eV     1   --> A'             
     e( 12 - 13) =     15.64172  eV     2   --> A'             
     e( 12 - 13) =     15.64172  eV     2   --> A''            

 **************************************************************************

 **************************************************************************

                    xk=(   0.47500,  -0.27424,   0.38784  )

     Band symmetry, C_s (m)     point group:

     e(  1 -  1) =     -8.67314  eV     1   --> A'             
     e(  2 -  3) =     -8.54010  eV     2   --> A'             
     e(  2 -  3) =     -8.54010  eV     2   --> A''            
     e(  4 -  4) =     -8.53507  eV     1   --> A'             
     e(  5 -  5) =     -8.50295  eV     1   --> A''            
     e(  6 -  6) =     -3.99638  eV     1   --> A'             
     e(  7 -  7) =     -0.43363  eV     1   --> A'             
     e(  8 -  9) =      3.62584  eV     2   --> A'             
     e(  8 -  9) =      3.62584  eV     2   --> A''            
     e( 10 - 10) =      7.64630  eV     1   --> A'             
     e( 11 - 11) =      7.84374  eV     1   --> A'             
     e( 12 - 13) =     15.85130  eV     2   --> A'             
     e( 12 - 13) =     15.85130  eV     2   --> A''            

 **************************************************************************

 **************************************************************************

                    xk=(   0.50000,  -0.28868,   0.40825  )

     Band symmetry, C_s (m)     point group:

     e(  1 -  1) =     -8.67362  eV     1   --> A'             
     e(  2 -  3) =     -8.53985  eV     2   --> A'             
     e(  2 -  3) =     -8.53985  eV     2   --> A''            
     e(  4 -  4) =     -8.53520  eV     1   --> A'             
     e(  5 -  5) =     -8.50289  eV     1   --> A''            
     e(  6 -  6) =     -3.96891  eV     1   --> A'             
     e(  7 -  7) =     -0.47234  eV     1   --> A'             
     e(  8 -  9) =      3.61605  eV     2   --> A'             
     e(  8 -  9) =      3.61605  eV     2   --> A''            
     e( 10 - 10) =      7.67467  eV     1   --> A'             
     e( 11 - 11) =      7.79061  eV     1   --> A'             
     e( 12 - 13) =     15.92783  eV     2   --> A'             
     e( 12 - 13) =     15.92783  eV     2   --> A''            

 **************************************************************************

 **************************************************************************

                    xk=(   0.49375,  -0.26342,   0.41845  )

     point group C_1 (1)    
     there are  1 classes
     the character table:

       E    
A      1.00

     the symmetry operations in each class and the name of the first element:

     E        1
                                                                 

     Band symmetry, C_1 (1)     point group:

     e(  1 -  1) =     -8.67345  eV     1   --> A              
     e(  2 -  3) =     -8.54005  eV     2   -->   2 A              
     e(  4 -  4) =     -8.53499  eV     1   --> A              
     e(  5 -  5) =     -8.50295  eV     1   --> A              
     e(  6 -  6) =     -3.97000  eV     1   --> A              
     e(  7 -  7) =     -0.46788  eV     1   --> A              
     e(  8 -  8) =      3.60320  eV     1   --> A              
     e(  9 -  9) =      3.60606  eV     1   --> A              
     e( 10 - 10) =      7.69867  eV     1   --> A              
     e( 11 - 11) =      7.82171  eV     1   --> A              
     e( 12 - 12) =     15.85924  eV     1   --> A              
     e( 13 - 13) =     15.87619  eV     1   --> A              

 **************************************************************************

 **************************************************************************

                    xk=(   0.48750,  -0.23816,   0.42866  )

     Band symmetry, C_1 (1)     point group:

     e(  1 -  1) =     -8.67295  eV     1   --> A              
     e(  2 -  2) =     -8.54068  eV     1   --> A              
     e(  3 -  3) =     -8.54034  eV     1   --> A              
     e(  4 -  4) =     -8.53441  eV     1   --> A              
     e(  5 -  5) =     -8.50318  eV     1   --> A              
     e(  6 -  6) =     -3.97319  eV     1   --> A              
     e(  7 -  7) =     -0.45476  eV     1   --> A              
     e(  8 -  8) =      3.56554  eV     1   --> A              
     e(  9 -  9) =      3.57780  eV     1   --> A              
     e( 10 - 10) =      7.77130  eV     1   --> A              
     e( 11 - 11) =      7.91191  eV     1   --> A              
     e( 12 - 12) =     15.63813  eV     1   --> A              
     e( 13 - 13) =     15.74996  eV     1   --> A              

 **************************************************************************

 **************************************************************************

                    xk=(   0.48125,  -0.21290,   0.43887  )

     Band symmetry, C_1 (1)     point group:

     e(  1 -  1) =     -8.67213  eV     1   --> A              
     e(  2 -  2) =     -8.54171  eV     1   --> A              
     e(  3 -  3) =     -8.54082  eV     1   --> A              
     e(  4 -  4) =     -8.53357  eV     1   --> A              
     e(  5 -  5) =     -8.50355  eV     1   --> A              
     e(  6 -  6) =     -3.97829  eV     1   --> A              
     e(  7 -  7) =     -0.43379  eV     1   --> A              
     e(  8 -  8) =      3.50566  eV     1   --> A              
     e(  9 -  9) =      3.53578  eV     1   --> A              
     e( 10 - 10) =      7.89256  eV     1   --> A              
     e( 11 - 11) =      8.05431  eV     1   --> A              
     e( 12 - 12) =     15.28481  eV     1   --> A              
     e( 13 - 13) =     15.57657  eV     1   --> A              

 **************************************************************************

 **************************************************************************

                    xk=(   0.47500,  -0.18764,   0.44907  )

     Band symmetry, C_1 (1)     point group:

     e(  1 -  1) =     -8.67103  eV     1   --> A              
     e(  2 -  2) =     -8.54309  eV     1   --> A              
     e(  3 -  3) =     -8.54133  eV     1   --> A              
     e(  4 -  4) =     -8.53254  eV     1   --> A              
     e(  5 -  5) =     -8.50404  eV     1   --> A              
     e(  6 -  6) =     -3.98499  eV     1   --> A              
     e(  7 -  7) =     -0.40629  eV     1   --> A              
     e(  8 -  8) =      3.42758  eV     1   --> A              
     e(  9 -  9) =      3.48608  eV     1   --> A              
     e( 10 - 10) =      8.06005  eV     1   --> A              
     e( 11 - 11) =      8.24131  eV     1   --> A              
     e( 12 - 12) =     14.84449  eV     1   --> A              
     e( 13 - 13) =     15.36968  eV     1   --> A              

 **************************************************************************

 **************************************************************************

                    xk=(   0.46875,  -0.16238,   0.45928  )

     Band symmetry, C_1 (1)     point group:

     e(  1 -  1) =     -8.66968  eV     1   --> A              
     e(  2 -  2) =     -8.54474  eV     1   --> A              
     e(  3 -  3) =     -8.54186  eV     1   --> A              
     e(  4 -  4) =     -8.53138  eV     1   --> A              
     e(  5 -  5) =     -8.50464  eV     1   --> A              
     e(  6 -  6) =     -3.99291  eV     1   --> A              
     e(  7 -  7) =     -0.37399  eV     1   --> A              
     e(  8 -  8) =      3.33608  eV     1   --> A              
     e(  9 -  9) =      3.43523  eV     1   --> A              
     e( 10 - 10) =      8.26954  eV     1   --> A              
     e( 11 - 11) =      8.46582  eV     1   --> A              
     e( 12 - 12) =     14.35456  eV     1   --> A              
     e( 13 - 13) =     15.13706  eV     1   --> A              

 **************************************************************************

 **************************************************************************

                    xk=(   0.46250,  -0.13712,   0.46949  )

     Band symmetry, C_1 (1)     point group:

     e(  1 -  1) =     -8.66816  eV     1   --> A              
     e(  2 -  2) =     -8.54661  eV     1   --> A              
     e(  3 -  3) =     -8.54238  eV     1   --> A              
     e(  4 -  4) =     -8.53013  eV     1   --> A              
     e(  5 -  5) =     -8.50536  eV     1   --> A              
     e(  6 -  6) =     -4.00161  eV     1   --> A              
     e(  7 -  7) =     -0.33902  eV     1   --> A              
     e(  8 -  8) =      3.23607  eV     1   --> A              
     e(  9 -  9) =      3.38943  eV     1   --> A              
     e( 10 - 10) =      8.51602  eV     1   --> A              
     e( 11 - 11) =      8.72132  eV     1   --> A              
     e( 12 - 12) =     13.83956  eV     1   --> A              
     e( 13 - 13) =     14.88459  eV     1   --> A              

 **************************************************************************

 **************************************************************************

                    xk=(   0.45625,  -0.11186,   0.47969  )

     Band symmetry, C_1 (1)     point group:

     e(  1 -  1) =     -8.66654  eV     1   --> A              
     e(  2 -  2) =     -8.54860  eV     1   --> A              
     e(  3 -  3) =     -8.54288  eV     1   --> A              
     e(  4 -  4) =     -8.52884  eV     1   --> A              
     e(  5 -  5) =     -8.50616  eV     1   --> A              
     e(  6 -  6) =     -4.01061  eV     1   --> A              
     e(  7 -  7) =     -0.30368  eV     1   --> A              
     e(  8 -  8) =      3.13208  eV     1   --> A              
     e(  9 -  9) =      3.35421  eV     1   --> A              
     e( 10 - 10) =      8.79423  eV     1   --> A              
     e( 11 - 11) =      9.00173  eV     1   --> A              
     e( 12 - 12) =     13.31590  eV     1   --> A              
     e( 13 - 13) =     14.61765  eV     1   --> A              

 **************************************************************************

 **************************************************************************

                    xk=(   0.45000,  -0.08660,   0.48990  )

     Band symmetry, C_1 (1)     point group:

     e(  1 -  1) =     -8.66492  eV     1   --> A              
     e(  2 -  2) =     -8.55057  eV     1   --> A              
     e(  3 -  3) =     -8.54337  eV     1   --> A              
     e(  4 -  4) =     -8.52752  eV     1   --> A              
     e(  5 -  5) =     -8.50702  eV     1   --> A              
     e(  6 -  6) =     -4.01945  eV     1   --> A              
     e(  7 -  7) =     -0.27035  eV     1   --> A              
     e(  8 -  8) =      3.02803  eV     1   --> A              
     e(  9 -  9) =      3.33416  eV     1   --> A              
     e( 10 - 10) =      9.09846  eV     1   --> A              
     e( 11 - 11) =      9.30112  eV     1   --> A              
     e( 12 - 12) =     12.79582  eV     1   --> A              
     e( 13 - 13) =     14.34170  eV     1   --> A              

 **************************************************************************

 **************************************************************************

                    xk=(   0.44375,  -0.06134,   0.50010  )

     Band symmetry, C_1 (1)     point group:

     e(  1 -  1) =     -8.66335  eV     1   --> A              
     e(  2 -  2) =     -8.55243  eV     1   --> A              
     e(  3 -  3) =     -8.54383  eV     1   --> A              
     e(  4 -  4) =     -8.52622  eV     1   --> A              
     e(  5 -  5) =     -8.50791  eV     1   --> A              
     e(  6 -  6) =     -4.02768  eV     1   --> A              
     e(  7 -  7) =     -0.24119  eV     1   --> A              
     e(  8 -  8) =      2.92720  eV     1   --> A              
     e(  9 -  9) =      3.33275  eV     1   --> A              
     e( 10 - 10) =      9.42102  eV     1   --> A              
     e( 11 - 11) =      9.61346  eV     1   --> A              
     e( 12 - 12) =     12.29135  eV     1   --> A              
     e( 13 - 13) =     14.06226  eV     1   --> A              

 **************************************************************************

 **************************************************************************

                    xk=(   0.43750,  -0.03608,   0.51031  )

     Band symmetry, C_1 (1)     point group:

     e(  1 -  1) =     -8.66194  eV     1   --> A              
     e(  2 -  2) =     -8.55407  eV     1   --> A              
     e(  3 -  3) =     -8.54428  eV     1   --> A              
     e(  4 -  4) =     -8.52497  eV     1   --> A              
     e(  5 -  5) =     -8.50878  eV     1   --> A              
     e(  6 -  6) =     -4.03490  eV     1   --> A              
     e(  7 -  7) =     -0.21801  eV     1   --> A              
     e(  8 -  8) =      2.83227  eV     1   --> A              
     e(  9 -  9) =      3.35221  eV     1   --> A              
     e( 10 - 10) =      9.74446  eV     1   --> A              
     e( 11 - 11) =      9.93429  eV     1   --> A              
     e( 12 - 12) =     11.82073  eV     1   --> A              
     e( 13 - 13) =     13.78545  eV     1   --> A              

 **************************************************************************

 **************************************************************************

                    xk=(   0.43125,  -0.01083,   0.52052  )

     Band symmetry, C_1 (1)     point group:

     e(  1 -  1) =     -8.66079  eV     1   --> A              
     e(  2 -  2) =     -8.55538  eV     1   --> A              
     e(  3 -  3) =     -8.54471  eV     1   --> A              
     e(  4 -  4) =     -8.52386  eV     1   --> A              
     e(  5 -  5) =     -8.50958  eV     1   --> A              
     e(  6 -  6) =     -4.04076  eV     1   --> A              
     e(  7 -  7) =     -0.20201  eV     1   --> A              
     e(  8 -  8) =      2.74540  eV     1   --> A              
     e(  9 -  9) =      3.39332  eV     1   --> A              
     e( 10 - 10) =     10.01316  eV     1   --> A              
     e( 11 - 11) =     10.27015  eV     1   --> A              
     e( 12 - 12) =     11.42717  eV     1   --> A              
     e( 13 - 13) =     13.51896  eV     1   --> A              

 **************************************************************************

 **************************************************************************

                    xk=(   0.42500,   0.01443,   0.53072  )

     Band symmetry, C_1 (1)     point group:

     e(  1 -  1) =     -8.65994  eV     1   --> A              
     e(  2 -  2) =     -8.55627  eV     1   --> A              
     e(  3 -  3) =     -8.54511  eV     1   --> A              
     e(  4 -  4) =     -8.52297  eV     1   --> A              
     e(  5 -  5) =     -8.51024  eV     1   --> A              
     e(  6 -  6) =     -4.04496  eV     1   --> A              
     e(  7 -  7) =     -0.19368  eV     1   --> A              
     e(  8 -  8) =      2.66829  eV     1   --> A              
     e(  9 -  9) =      3.45526  eV     1   --> A              
     e( 10 - 10) =     10.09193  eV     1   --> A              
     e( 11 - 11) =     10.63531  eV     1   --> A              
     e( 12 - 12) =     11.22166  eV     1   --> A              
     e( 13 - 13) =     13.27410  eV     1   --> A              

 **************************************************************************

 **************************************************************************

                    xk=(   0.41875,   0.03969,   0.54093  )

     Band symmetry, C_1 (1)     point group:

     e(  1 -  1) =     -8.65945  eV     1   --> A              
     e(  2 -  2) =     -8.55671  eV     1   --> A              
     e(  3 -  3) =     -8.54547  eV     1   --> A              
     e(  4 -  4) =     -8.52237  eV     1   --> A              
     e(  5 -  5) =     -8.51068  eV     1   --> A              
     e(  6 -  6) =     -4.04727  eV     1   --> A              
     e(  7 -  7) =     -0.19287  eV     1   --> A              
     e(  8 -  8) =      2.60233  eV     1   --> A              
     e(  9 -  9) =      3.53555  eV     1   --> A              
     e( 10 - 10) =      9.89602  eV     1   --> A              
     e( 11 - 11) =     11.01604  eV     1   --> A              
     e( 12 - 12) =     11.28384  eV     1   --> A              
     e( 13 - 13) =     13.07053  eV     1   --> A              

 **************************************************************************

 **************************************************************************

                    xk=(   0.41250,   0.06495,   0.55114  )

     Band symmetry, C_1 (1)     point group:

     e(  1 -  1) =     -8.65932  eV     1   --> A              
     e(  2 -  2) =     -8.55667  eV     1   --> A              
     e(  3 -  3) =     -8.54578  eV     1   --> A              
     e(  4 -  4) =     -8.52214  eV     1   --> A              
     e(  5 -  5) =     -8.51084  eV     1   --> A              
     e(  6 -  6) =     -4.04751  eV     1   --> A              
     e(  7 -  7) =     -0.19879  eV     1   --> A              
     e(  8 -  8) =      2.54859  eV     1   --> A              
     e(  9 -  9) =      3.62989  eV     1   --> A              
     e( 10 - 10) =      9.56336  eV     1   --> A              
     e( 11 - 11) =     11.31974  eV     1   --> A              
     e( 12 - 12) =     11.53307  eV     1   --> A              
     e( 13 - 13) =     12.94414  eV     1   --> A              

 **************************************************************************

 **************************************************************************

                    xk=(   0.40625,   0.09021,   0.56134  )

     Band symmetry, C_1 (1)     point group:

     e(  1 -  1) =     -8.65953  eV     1   --> A              
     e(  2 -  2) =     -8.55620  eV     1   --> A              
     e(  3 -  3) =     -8.54605  eV     1   --> A              
     e(  4 -  4) =     -8.52227  eV     1   --> A              
     e(  5 -  5) =     -8.51069  eV     1   --> A              
     e(  6 -  6) =     -4.04560  eV     1   --> A              
     e(  7 -  7) =     -0.21027  eV     1   --> A              
     e(  8 -  8) =      2.50788  eV     1   --> A              
     e(  9 -  9) =      3.73204  eV     1   --> A              
     e( 10 - 10) =      9.20770  eV     1   --> A              
     e( 11 - 11) =     11.42369  eV     1   --> A              
     e( 12 - 12) =     11.93040  eV     1   --> A              
     e( 13 - 13) =     12.94241  eV     1   --> A              

 **************************************************************************

 **************************************************************************

                    xk=(   0.40000,   0.11547,   0.57155  )

     Band symmetry, C_1 (1)     point group:

     e(  1 -  1) =     -8.66001  eV     1   --> A              
     e(  2 -  2) =     -8.55536  eV     1   --> A              
     e(  3 -  3) =     -8.54623  eV     1   --> A              
     e(  4 -  4) =     -8.52273  eV     1   --> A              
     e(  5 -  5) =     -8.51030  eV     1   --> A              
     e(  6 -  6) =     -4.04148  eV     1   --> A              
     e(  7 -  7) =     -0.22591  eV     1   --> A              
     e(  8 -  8) =      2.48082  eV     1   --> A              
     e(  9 -  9) =      3.83370  eV     1   --> A              
     e( 10 - 10) =      8.87242  eV     1   --> A              
     e( 11 - 11) =     11.38134  eV     1   --> A              
     e( 12 - 12) =     12.36555  eV     1   --> A              
     e( 13 - 13) =     13.07672  eV     1   --> A              

 **************************************************************************

 **************************************************************************

                    xk=(   0.39375,   0.14073,   0.58175  )

     Band symmetry, C_1 (1)     point group:

     e(  1 -  1) =     -8.66073  eV     1   --> A              
     e(  2 -  2) =     -8.55429  eV     1   --> A              
     e(  3 -  3) =     -8.54632  eV     1   --> A              
     e(  4 -  4) =     -8.52341  eV     1   --> A              
     e(  5 -  5) =     -8.50979  eV     1   --> A              
     e(  6 -  6) =     -4.03520  eV     1   --> A              
     e(  7 -  7) =     -0.24425  eV     1   --> A              
     e(  8 -  8) =      2.46783  eV     1   --> A              
     e(  9 -  9) =      3.92437  eV     1   --> A              
     e( 10 - 10) =      8.57926  eV     1   --> A              
     e( 11 - 11) =     11.24457  eV     1   --> A              
     e( 12 - 12) =     12.81087  eV     1   --> A              
     e( 13 - 13) =     13.29521  eV     1   --> A              

 **************************************************************************

 **************************************************************************

                    xk=(   0.38750,   0.16599,   0.59196  )

     Band symmetry, C_1 (1)     point group:

     e(  1 -  1) =     -8.66159  eV     1   --> A              
     e(  2 -  2) =     -8.55314  eV     1   --> A              
     e(  3 -  3) =     -8.54627  eV     1   --> A              
     e(  4 -  4) =     -8.52419  eV     1   --> A              
     e(  5 -  5) =     -8.50922  eV     1   --> A              
     e(  6 -  6) =     -4.02687  eV     1   --> A              
     e(  7 -  7) =     -0.26389  eV     1   --> A              
     e(  8 -  8) =      2.46917  eV     1   --> A              
     e(  9 -  9) =      3.99187  eV     1   --> A              
     e( 10 - 10) =      8.34469  eV     1   --> A              
     e( 11 - 11) =     11.06084  eV     1   --> A              
     e( 12 - 12) =     13.25318  eV     1   --> A              
     e( 13 - 13) =     13.53338  eV     1   --> A              

 **************************************************************************

 **************************************************************************

                    xk=(   0.38125,   0.19125,   0.60217  )

     Band symmetry, C_1 (1)     point group:

     e(  1 -  1) =     -8.66249  eV     1   --> A              
     e(  2 -  2) =     -8.55205  eV     1   --> A              
     e(  3 -  3) =     -8.54602  eV     1   --> A              
     e(  4 -  4) =     -8.52499  eV     1   --> A              
     e(  5 -  5) =     -8.50867  eV     1   --> A              
     e(  6 -  6) =     -4.01670  eV     1   --> A              
     e(  7 -  7) =     -0.28360  eV     1   --> A              
     e(  8 -  8) =      2.48495  eV     1   --> A              
     e(  9 -  9) =      4.02382  eV     1   --> A              
     e( 10 - 10) =      8.18296  eV     1   --> A              
     e( 11 - 11) =     10.85796  eV     1   --> A              
     e( 12 - 12) =     13.65136  eV     1   --> A              
     e( 13 - 13) =     13.75553  eV     1   --> A              

 **************************************************************************

 **************************************************************************

                    xk=(   0.37500,   0.21651,   0.61237  )

     point group C_s (m)    
     there are  2 classes
     the character table:

       E     s    
A'     1.00  1.00
A''    1.00 -1.00

     the symmetry operations in each class and the name of the first element:

     E        1
                                                                 
     s        2
                                                                 

     Band symmetry, C_s (m)     point group:

     e(  1 -  1) =     -8.66336  eV     1   --> A'             
     e(  2 -  2) =     -8.55119  eV     1   --> A'             
     e(  3 -  3) =     -8.54557  eV     1   --> A''            
     e(  4 -  4) =     -8.52575  eV     1   --> A'             
     e(  5 -  5) =     -8.50818  eV     1   --> A''            
     e(  6 -  6) =     -4.00499  eV     1   --> A'             
     e(  7 -  7) =     -0.30230  eV     1   --> A'             
     e(  8 -  8) =      2.51512  eV     1   --> A'             
     e(  9 -  9) =      4.01049  eV     1   --> A''            
     e( 10 - 10) =      8.10457  eV     1   --> A'             
     e( 11 - 11) =     10.64979  eV     1   --> A'             
     e( 12 - 12) =     13.83779  eV     1   --> A'             
     e( 13 - 13) =     13.98288  eV     1   --> A''            

 **************************************************************************

 **************************************************************************

                    xk=(   0.35625,   0.20568,   0.58175  )

     Band symmetry, C_s (m)     point group:

     e(  1 -  1) =     -8.66078  eV     1   --> A'             
     e(  2 -  2) =     -8.55329  eV     1   --> A'             
     e(  3 -  3) =     -8.54732  eV     1   --> A''            
     e(  4 -  4) =     -8.52359  eV     1   --> A'             
     e(  5 -  5) =     -8.50953  eV     1   --> A''            
     e(  6 -  6) =     -4.05257  eV     1   --> A'             
     e(  7 -  7) =     -0.24112  eV     1   --> A'             
     e(  8 -  8) =      2.43194  eV     1   --> A'             
     e(  9 -  9) =      4.13069  eV     1   --> A''            
     e( 10 - 10) =      8.21276  eV     1   --> A'             
     e( 11 - 11) =     11.24713  eV     1   --> A'             
     e( 12 - 12) =     13.59647  eV     1   --> A''            
     e( 13 - 13) =     13.60879  eV     1   --> A'             

 **************************************************************************

 **************************************************************************

                    xk=(   0.33750,   0.19486,   0.55114  )

     Band symmetry, C_s (m)     point group:

     e(  1 -  1) =     -8.65809  eV     1   --> A'             
     e(  2 -  2) =     -8.55521  eV     1   --> A'             
     e(  3 -  3) =     -8.54926  eV     1   --> A''            
     e(  4 -  4) =     -8.52144  eV     1   --> A'             
     e(  5 -  5) =     -8.51086  eV     1   --> A''            
     e(  6 -  6) =     -4.12333  eV     1   --> A'             
     e(  7 -  7) =     -0.16087  eV     1   --> A'             
     e(  8 -  8) =      2.40758  eV     1   --> A'             
     e(  9 -  9) =      4.26331  eV     1   --> A''            
     e( 10 - 10) =      8.32656  eV     1   --> A'             
     e( 11 - 11) =     11.71020  eV     1   --> A'             
     e( 12 - 12) =     13.22048  eV     1   --> A''            
     e( 13 - 13) =     13.47233  eV     1   --> A'             

 **************************************************************************

 **************************************************************************

                    xk=(   0.31875,   0.18403,   0.52052  )

     Band symmetry, C_s (m)     point group:

     e(  1 -  1) =     -8.65529  eV     1   --> A'             
     e(  2 -  2) =     -8.55692  eV     1   --> A'             
     e(  3 -  3) =     -8.55136  eV     1   --> A''            
     e(  4 -  4) =     -8.51938  eV     1   --> A'             
     e(  5 -  5) =     -8.51214  eV     1   --> A''            
     e(  6 -  6) =     -4.21889  eV     1   --> A'             
     e(  7 -  7) =     -0.05521  eV     1   --> A'             
     e(  8 -  8) =      2.44070  eV     1   --> A'             
     e(  9 -  9) =      4.40649  eV     1   --> A''            
     e( 10 - 10) =      8.44072  eV     1   --> A'             
     e( 11 - 11) =     11.91066  eV     1   --> A'             
     e( 12 - 12) =     12.85877  eV     1   --> A''            
     e( 13 - 13) =     13.15249  eV     1   --> A'             

 **************************************************************************

 **************************************************************************

                    xk=(   0.30000,   0.17321,   0.48990  )

     Band symmetry, C_s (m)     point group:

     e(  1 -  1) =     -8.65234  eV     1   --> A'             
     e(  2 -  2) =     -8.55841  eV     1   --> A'             
     e(  3 -  3) =     -8.55363  eV     1   --> A''            
     e(  4 -  4) =     -8.51751  eV     1   --> A'             
     e(  5 -  5) =     -8.51339  eV     1   --> A''            
     e(  6 -  6) =     -4.33843  eV     1   --> A'             
     e(  7 -  7) =      0.08150  eV     1   --> A'             
     e(  8 -  8) =      2.52697  eV     1   --> A'             
     e(  9 -  9) =      4.55800  eV     1   --> A''            
     e( 10 - 10) =      8.54825  eV     1   --> A'             
     e( 11 - 11) =     11.89002  eV     1   --> A'             
     e( 12 - 12) =     12.51392  eV     1   --> A''            
     e( 13 - 13) =     12.76112  eV     1   --> A'             

 **************************************************************************

 **************************************************************************

                    xk=(   0.28125,   0.16238,   0.45928  )

     Band symmetry, C_s (m)     point group:

     e(  1 -  1) =     -8.64911  eV     1   --> A'             
     e(  2 -  2) =     -8.55970  eV     1   --> A'             
     e(  3 -  3) =     -8.55596  eV     1   --> A''            
     e(  4 -  4) =     -8.51588  eV     1   --> A'             
     e(  5 -  5) =     -8.51445  eV     1   --> A''            
     e(  6 -  6) =     -4.47887  eV     1   --> A'             
     e(  7 -  7) =      0.25307  eV     1   --> A'             
     e(  8 -  8) =      2.66058  eV     1   --> A'             
     e(  9 -  9) =      4.71546  eV     1   --> A''            
     e( 10 - 10) =      8.64052  eV     1   --> A'             
     e( 11 - 11) =     11.78744  eV     1   --> A'             
     e( 12 - 12) =     12.18794  eV     1   --> A''            
     e( 13 - 13) =     12.38297  eV     1   --> A'             

 **************************************************************************

 **************************************************************************

                    xk=(   0.26250,   0.15155,   0.42866  )

     Band symmetry, C_s (m)     point group:

     e(  1 -  1) =     -8.64557  eV     1   --> A'             
     e(  2 -  2) =     -8.56086  eV     1   --> A'             
     e(  3 -  3) =     -8.55837  eV     1   --> A''            
     e(  4 -  4) =     -8.51534  eV     1   --> A''            
     e(  5 -  5) =     -8.51457  eV     1   --> A'             
     e(  6 -  6) =     -4.63557  eV     1   --> A'             
     e(  7 -  7) =      0.46123  eV     1   --> A'             
     e(  8 -  8) =      2.83544  eV     1   --> A'             
     e(  9 -  9) =      4.87603  eV     1   --> A''            
     e( 10 - 10) =      8.70785  eV     1   --> A'             
     e( 11 - 11) =     11.67593  eV     1   --> A'             
     e( 12 - 12) =     11.88200  eV     1   --> A''            
     e( 13 - 13) =     12.03439  eV     1   --> A'             

 **************************************************************************

 **************************************************************************

                    xk=(   0.24375,   0.14073,   0.39804  )

     Band symmetry, C_s (m)     point group:

     e(  1 -  1) =     -8.64162  eV     1   --> A'             
     e(  2 -  2) =     -8.56198  eV     1   --> A'             
     e(  3 -  3) =     -8.56080  eV     1   --> A''            
     e(  4 -  4) =     -8.51606  eV     1   --> A''            
     e(  5 -  5) =     -8.51358  eV     1   --> A'             
     e(  6 -  6) =     -4.80315  eV     1   --> A'             
     e(  7 -  7) =      0.70596  eV     1   --> A'             
     e(  8 -  8) =      3.04576  eV     1   --> A'             
     e(  9 -  9) =      5.03670  eV     1   --> A''            
     e( 10 - 10) =      8.74152  eV     1   --> A'             
     e( 11 - 11) =     11.54635  eV     1   --> A'             
     e( 12 - 12) =     11.59702  eV     1   --> A''            
     e( 13 - 13) =     11.75983  eV     1   --> A'             

 **************************************************************************

 **************************************************************************

                    xk=(   0.22500,   0.12990,   0.36742  )

     Band symmetry, C_s (m)     point group:

     e(  1 -  1) =     -8.63720  eV     1   --> A'             
     e(  2 -  2) =     -8.56323  eV     1   --> A''            
     e(  3 -  3) =     -8.56313  eV     1   --> A'             
     e(  4 -  4) =     -8.51656  eV     1   --> A''            
     e(  5 -  5) =     -8.51292  eV     1   --> A'             
     e(  6 -  6) =     -4.97618  eV     1   --> A'             
     e(  7 -  7) =      0.98610  eV     1   --> A'             
     e(  8 -  8) =      3.28616  eV     1   --> A'             
     e(  9 -  9) =      5.19428  eV     1   --> A''            
     e( 10 - 10) =      8.73627  eV     1   --> A'             
     e( 11 - 11) =     11.30789  eV     1   --> A'             
     e( 12 - 12) =     11.33351  eV     1   --> A''            
     e( 13 - 13) =     11.66105  eV     1   --> A'             

 **************************************************************************

 **************************************************************************

                    xk=(   0.20625,   0.11908,   0.33680  )

     Band symmetry, C_s (m)     point group:

     e(  1 -  1) =     -8.63230  eV     1   --> A'             
     e(  2 -  2) =     -8.56563  eV     1   --> A''            
     e(  3 -  3) =     -8.56439  eV     1   --> A'             
     e(  4 -  4) =     -8.51690  eV     1   --> A''            
     e(  5 -  5) =     -8.51259  eV     1   --> A'             
     e(  6 -  6) =     -5.14969  eV     1   --> A'             
     e(  7 -  7) =      1.29984  eV     1   --> A'             
     e(  8 -  8) =      3.55155  eV     1   --> A'             
     e(  9 -  9) =      5.34549  eV     1   --> A''            
     e( 10 - 10) =      8.69228  eV     1   --> A'             
     e( 11 - 11) =     11.03616  eV     1   --> A'             
     e( 12 - 12) =     11.09167  eV     1   --> A''            
     e( 13 - 13) =     11.65647  eV     1   --> A'             

 **************************************************************************

 **************************************************************************

                    xk=(   0.18750,   0.10825,   0.30619  )

     Band symmetry, C_s (m)     point group:

     e(  1 -  1) =     -8.62693  eV     1   --> A'             
     e(  2 -  2) =     -8.56797  eV     1   --> A''            
     e(  3 -  3) =     -8.56581  eV     1   --> A'             
     e(  4 -  4) =     -8.51707  eV     1   --> A''            
     e(  5 -  5) =     -8.51250  eV     1   --> A'             
     e(  6 -  6) =     -5.31935  eV     1   --> A'             
     e(  7 -  7) =      1.64509  eV     1   --> A'             
     e(  8 -  8) =      3.83693  eV     1   --> A'             
     e(  9 -  9) =      5.48728  eV     1   --> A''            
     e( 10 - 10) =      8.61448  eV     1   --> A'             
     e( 11 - 11) =     10.78137  eV     1   --> A'             
     e( 12 - 12) =     10.87159  eV     1   --> A''            
     e( 13 - 13) =     11.67580  eV     1   --> A'             

 **************************************************************************

 **************************************************************************

                    xk=(   0.16875,   0.09743,   0.27557  )

     Band symmetry, C_s (m)     point group:

     e(  1 -  1) =     -8.62115  eV     1   --> A'             
     e(  2 -  2) =     -8.57019  eV     1   --> A''            
     e(  3 -  3) =     -8.56742  eV     1   --> A'             
     e(  4 -  4) =     -8.51707  eV     1   --> A''            
     e(  5 -  5) =     -8.51262  eV     1   --> A'             
     e(  6 -  6) =     -5.48151  eV     1   --> A'             
     e(  7 -  7) =      2.01963  eV     1   --> A'             
     e(  8 -  8) =      4.13695  eV     1   --> A'             
     e(  9 -  9) =      5.61698  eV     1   --> A''            
     e( 10 - 10) =      8.50969  eV     1   --> A'             
     e( 11 - 11) =     10.55243  eV     1   --> A'             
     e( 12 - 12) =     10.67320  eV     1   --> A''            
     e( 13 - 13) =     11.67757  eV     1   --> A'             

 **************************************************************************

 **************************************************************************

                    xk=(   0.15000,   0.08660,   0.24495  )

     Band symmetry, C_s (m)     point group:

     e(  1 -  1) =     -8.61509  eV     1   --> A'             
     e(  2 -  2) =     -8.57228  eV     1   --> A''            
     e(  3 -  3) =     -8.56923  eV     1   --> A'             
     e(  4 -  4) =     -8.51692  eV     1   --> A''            
     e(  5 -  5) =     -8.51291  eV     1   --> A'             
     e(  6 -  6) =     -5.63317  eV     1   --> A'             
     e(  7 -  7) =      2.42115  eV     1   --> A'             
     e(  8 -  8) =      4.44563  eV     1   --> A'             
     e(  9 -  9) =      5.73249  eV     1   --> A''            
     e( 10 - 10) =      8.38372  eV     1   --> A'             
     e( 11 - 11) =     10.35255  eV     1   --> A'             
     e( 12 - 12) =     10.49629  eV     1   --> A''            
     e( 13 - 13) =     11.61890  eV     1   --> A'             

 **************************************************************************

 **************************************************************************

                    xk=(   0.13125,   0.07578,   0.21433  )

     Band symmetry, C_s (m)     point group:

     e(  1 -  1) =     -8.60891  eV     1   --> A'             
     e(  2 -  2) =     -8.57424  eV     1   --> A''            
     e(  3 -  3) =     -8.57122  eV     1   --> A'             
     e(  4 -  4) =     -8.51667  eV     1   --> A''            
     e(  5 -  5) =     -8.51328  eV     1   --> A'             
     e(  6 -  6) =     -5.77188  eV     1   --> A'             
     e(  7 -  7) =      2.84725  eV     1   --> A'             
     e(  8 -  8) =      4.75593  eV     1   --> A'             
     e(  9 -  9) =      5.83243  eV     1   --> A''            
     e( 10 - 10) =      8.23933  eV     1   --> A'             
     e( 11 - 11) =     10.18392  eV     1   --> A'             
     e( 12 - 12) =     10.34063  eV     1   --> A''            
     e( 13 - 13) =     11.46599  eV     1   --> A'             

 **************************************************************************

 **************************************************************************

                    xk=(   0.11250,   0.06495,   0.18371  )

     Band symmetry, C_s (m)     point group:

     e(  1 -  1) =     -8.60280  eV     1   --> A'             
     e(  2 -  2) =     -8.57599  eV     1   --> A''            
     e(  3 -  3) =     -8.57328  eV     1   --> A'             
     e(  4 -  4) =     -8.51636  eV     1   --> A''            
     e(  5 -  5) =     -8.51364  eV     1   --> A'             
     e(  6 -  6) =     -5.89565  eV     1   --> A'             
     e(  7 -  7) =      3.29529  eV     1   --> A'             
     e(  8 -  8) =      5.05945  eV     1   --> A'             
     e(  9 -  9) =      5.91636  eV     1   --> A''            
     e( 10 - 10) =      8.07504  eV     1   --> A'             
     e( 11 - 11) =     10.04840  eV     1   --> A'             
     e( 12 - 12) =     10.20605  eV     1   --> A''            
     e( 13 - 13) =     11.21478  eV     1   --> A'             

 **************************************************************************

 **************************************************************************

                    xk=(   0.09375,   0.05413,   0.15309  )

     Band symmetry, C_s (m)     point group:

     e(  1 -  1) =     -8.59698  eV     1   --> A'             
     e(  2 -  2) =     -8.57750  eV     1   --> A''            
     e(  3 -  3) =     -8.57531  eV     1   --> A'             
     e(  4 -  4) =     -8.51599  eV     1   --> A''            
     e(  5 -  5) =     -8.51401  eV     1   --> A'             
     e(  6 -  6) =     -6.00288  eV     1   --> A'             
     e(  7 -  7) =      3.76218  eV     1   --> A'             
     e(  8 -  8) =      5.34616  eV     1   --> A'             
     e(  9 -  9) =      5.98457  eV     1   --> A''            
     e( 10 - 10) =      7.88445  eV     1   --> A'             
     e( 11 - 11) =      9.94716  eV     1   --> A'             
     e( 12 - 12) =     10.09237  eV     1   --> A''            
     e( 13 - 13) =     10.89698  eV     1   --> A'             

 **************************************************************************

 **************************************************************************

                    xk=(   0.07500,   0.04330,   0.12247  )

     Band symmetry, C_s (m)     point group:

     e(  1 -  1) =     -8.59175  eV     1   --> A'             
     e(  2 -  2) =     -8.57880  eV     1   --> A''            
     e(  3 -  3) =     -8.57720  eV     1   --> A'             
     e(  4 -  4) =     -8.51563  eV     1   --> A''            
     e(  5 -  5) =     -8.51431  eV     1   --> A'             
     e(  6 -  6) =     -6.09228  eV     1   --> A'             
     e(  7 -  7) =      4.24412  eV     1   --> A'             
     e(  8 -  8) =      5.60452  eV     1   --> A'             
     e(  9 -  9) =      6.03784  eV     1   --> A''            
     e( 10 - 10) =      7.65657  eV     1   --> A'             
     e( 11 - 11) =      9.88002  eV     1   --> A'             
     e( 12 - 12) =      9.99944  eV     1   --> A''            
     e( 13 - 13) =     10.56277  eV     1   --> A'             

 **************************************************************************

 **************************************************************************

                    xk=(   0.05625,   0.03248,   0.09186  )

     Band symmetry, C_s (m)     point group:

     e(  1 -  1) =     -8.58733  eV     1   --> A'             
     e(  2 -  2) =     -8.57983  eV     1   --> A''            
     e(  3 -  3) =     -8.57884  eV     1   --> A'             
     e(  4 -  4) =     -8.51531  eV     1   --> A''            
     e(  5 -  5) =     -8.51455  eV     1   --> A'             
     e(  6 -  6) =     -6.16284  eV     1   --> A'             
     e(  7 -  7) =      4.73618  eV     1   --> A'             
     e(  8 -  8) =      5.82216  eV     1   --> A'             
     e(  9 -  9) =      6.07739  eV     1   --> A''            
     e( 10 - 10) =      7.37859  eV     1   --> A'             
     e( 11 - 11) =      9.84399  eV     1   --> A'             
     e( 12 - 12) =      9.92720  eV     1   --> A''            
     e( 13 - 13) =     10.26081  eV     1   --> A'             

 **************************************************************************

 **************************************************************************

                    xk=(   0.03750,   0.02165,   0.06124  )

     Band symmetry, C_s (m)     point group:

     e(  1 -  1) =     -8.58398  eV     1   --> A'             
     e(  2 -  2) =     -8.58058  eV     1   --> A''            
     e(  3 -  3) =     -8.58010  eV     1   --> A'             
     e(  4 -  4) =     -8.51507  eV     1   --> A''            
     e(  5 -  5) =     -8.51474  eV     1   --> A'             
     e(  6 -  6) =     -6.21379  eV     1   --> A'             
     e(  7 -  7) =      5.23152  eV     1   --> A'             
     e(  8 -  8) =      5.98731  eV     1   --> A'             
     e(  9 -  9) =      6.10451  eV     1   --> A''            
     e( 10 - 10) =      7.04197  eV     1   --> A'             
     e( 11 - 11) =      9.83190  eV     1   --> A'             
     e( 12 - 12) =      9.87561  eV     1   --> A''            
     e( 13 - 13) =     10.02745  eV     1   --> A'             

 **************************************************************************

 **************************************************************************

                    xk=(   0.01875,   0.01083,   0.03062  )

     Band symmetry, C_s (m)     point group:

     e(  1 -  1) =     -8.58190  eV     1   --> A'             
     e(  2 -  2) =     -8.58103  eV     1   --> A''            
     e(  3 -  3) =     -8.58091  eV     1   --> A'             
     e(  4 -  5) =     -8.51495  eV     2   --> A'             
     e(  4 -  5) =     -8.51495  eV     2   --> A''            
     e(  6 -  6) =     -6.24458  eV     1   --> A'             
     e(  7 -  7) =      5.71984  eV     1   --> A'             
     e(  8 -  8) =      6.09041  eV     1   --> A'             
     e(  9 -  9) =      6.12028  eV     1   --> A''            
     e( 10 - 10) =      6.64924  eV     1   --> A'             
     e( 11 - 11) =      9.83248  eV     1   --> A'             
     e( 12 - 12) =      9.84465  eV     1   --> A''            
     e( 13 - 13) =      9.88291  eV     1   --> A'             

 **************************************************************************

 **************************************************************************

                    xk=(   0.00000,   0.00000,   0.00000  )

     point group C_3v (3m)  
     there are  3 classes
     the character table:

       E     2C3   3s_v 
A_1    1.00  1.00  1.00
A_2    1.00  1.00 -1.00
E      2.00 -1.00  0.00

     the symmetry operations in each class and the name of the first element:

     E        1
                                                                 
     2C3      2    3
                                                                 
     3s_v     4    5    6
                                                                 

     Band symmetry, C_3v (3m)   point group:

     e(  1 -  3) =     -8.58119  eV     3   --> A_1  L_1       
     e(  1 -  3) =     -8.58119  eV     3   --> E    L_3       
     e(  4 -  5) =     -8.51490  eV     2   --> E    L_3       
     e(  6 -  6) =     -6.25488  eV     1   --> A_1  L_1       
     e(  7 -  9) =      6.12545  eV     3   --> A_1  L_1       
     e(  7 -  9) =      6.12545  eV     3   --> E    L_3       
     e( 10 - 10) =      6.27524  eV     1   --> A_1  L_1       
     e( 11 - 13) =      9.83433  eV     3   --> A_1  L_1       
     e( 11 - 13) =      9.83433  eV     3   --> E    L_3       

 **************************************************************************

     BANDS        :     15.81s CPU     14.56s WALL


   This run was terminated on:   6:56:49  18Dec2024            

=------------------------------------------------------------------------------=
   JOB DONE.
=------------------------------------------------------------------------------=
