
     Program PWSCF v.7.0 starts on 18Dec2024 at  6:45:58 

     This program is part of the open-source Quantum ESPRESSO suite
     for quantum simulation of materials; please cite
         "P. Giannozzi et al., J. Phys.:Condens. Matter 21 395502 (2009);
         "P. Giannozzi et al., J. Phys.:Condens. Matter 29 465901 (2017);
         "P. Giannozzi et al., J. Chem. Phys. 152 154105 (2020);
          URL http://www.quantum-espresso.org", 
     in publications or presentations arising from this work. More details at
     http://www.quantum-espresso.org/quote

     Parallel version (MPI & OpenMP), running on       2 processor cores
     Number of MPI processes:                 2
     Threads/MPI process:                     1

     MPI processes distributed on     1 nodes
     R & G space division:  proc/nbgrp/npool/nimage =       2
     372 MiB available memory on the printing compute node when the environment starts

     Reading input from pw.bands.w_soc.in

     Current dimensions of program PWSCF are:
     Max number of different atomic species (ntypx) = 10
     Max number of k-points (npk) =  40000
     Max angular momentum in pseudopotentials (lmaxx) =  4

     Atomic positions and unit cell read from directory:
     ./outputs/gaas.save/
     Atomic positions from file used, from input discarded

     file Ga.rel-pbe-dn-kjpaw_psl.1.0.0.UPF: wavefunction(s)  4S renormalized

     IMPORTANT: XC functional enforced from input :
     Exchange-correlation= PBE
                           (   1   4   3   4   0   0   0)
     Any further DFT definition will be discarded
     Please, verify this is what you really want

     Message from routine setup:
     using ibrav=0 with symmetry is DISCOURAGED, use correct ibrav instead

     Subspace diagonalization in iterative solution of the eigenvalue problem:
     a serial algorithm will be used


     Parallelization info
     --------------------
     sticks:   dense  smooth     PW     G-vecs:    dense   smooth      PW
     Min         408     408    120                 7676     7676    1221
     Max         409     409    121                 7677     7677    1224
     Sum         817     817    241                15353    15353    2445

     Using Slab Decomposition



     bravais-lattice index     =            0
     lattice parameter (alat)  =       7.6836  a.u.
     unit-cell volume          =     320.7602 (a.u.)^3
     number of atoms/cell      =            2
     number of atomic types    =            2
     number of electrons       =        18.00
     number of Kohn-Sham states=           26
     kinetic-energy cutoff     =      50.0000  Ry
     charge density cutoff     =     200.0000  Ry
     Exchange-correlation= PBE
                           (   1   4   3   4   0   0   0)
     Non magnetic calculation with spin-orbit


     celldm(1)=   7.683608  celldm(2)=   0.000000  celldm(3)=   0.000000
     celldm(4)=   0.000000  celldm(5)=   0.000000  celldm(6)=   0.000000

     crystal axes: (cart. coord. in units of alat)
               a(1) = (   1.000000   0.000000   0.000000 )  
               a(2) = (   0.500000   0.866025   0.000000 )  
               a(3) = (   0.500000   0.288675   0.816497 )  

     reciprocal axes: (cart. coord. in units 2 pi/alat)
               b(1) = (  1.000000 -0.577350 -0.408248 )  
               b(2) = (  0.000000  1.154701 -0.408248 )  
               b(3) = (  0.000000  0.000000  1.224745 )  


     PseudoPot. # 1 for As read from file:
     ../Pseudopotentials/As.rel-pbe-n-kjpaw_psl.1.0.0.UPF
     MD5 check sum: 64fce746f52c6128fdf7901f08bfcabb
     Pseudo is Projector augmented-wave + core cor, Zval =  5.0
     Generated using &quot;atomic&quot; code by A. Dal Corso  v.6.3
     Shape of augmentation charge: PSQ
     Using radial grid of 1209 points,  6 beta functions with: 
                l(1) =   0
                l(2) =   0
                l(3) =   1
                l(4) =   1
                l(5) =   1
                l(6) =   1
     Q(r) pseudized with 0 coefficients 


     PseudoPot. # 2 for Ga read from file:
     ../Pseudopotentials/Ga.rel-pbe-dn-kjpaw_psl.1.0.0.UPF
     MD5 check sum: f57628226c2638e1c4b61aff16a21354
     Pseudo is Projector augmented-wave + core cor, Zval = 13.0
     Generated using &quot;atomic&quot; code by A. Dal Corso  v.6.3
     Shape of augmentation charge: PSQ
     Using radial grid of 1205 points, 10 beta functions with: 
                l(1) =   0
                l(2) =   0
                l(3) =   1
                l(4) =   1
                l(5) =   1
                l(6) =   1
                l(7) =   2
                l(8) =   2
                l(9) =   2
               l(10) =   2
     Q(r) pseudized with 0 coefficients 


     atomic species   valence    mass     pseudopotential
        As             5.00    74.92100     As( 1.00)
        Ga            13.00    69.72300     Ga( 1.00)

      6 Sym. Ops. (no inversion) found


                                    s                        frac. trans.

      isym =  1     identity                                     

 cryst.   s( 1) = (     1          0          0      )
                  (     0          1          0      )
                  (     0          0          1      )

 cart.    s( 1) = (  1.0000000  0.0000000  0.0000000 )
                  (  0.0000000  1.0000000  0.0000000 )
                  (  0.0000000  0.0000000  1.0000000 )


      isym =  2     120 deg rotation - cryst. axis [0,0,1]       

 cryst.   s( 2) = (    -1          1          0      )
                  (    -1          0          0      )
                  (    -1          0          1      )

 cart.    s( 2) = ( -0.5000000 -0.8660254 -0.0000000 )
                  (  0.8660254 -0.5000000 -0.0000000 )
                  (  0.0000000  0.0000000  1.0000000 )


      isym =  3     120 deg rotation - cryst. axis [0,0,-1]      

 cryst.   s( 3) = (     0         -1          0      )
                  (     1         -1          0      )
                  (     0         -1          1      )

 cart.    s( 3) = ( -0.5000000  0.8660254  0.0000000 )
                  ( -0.8660254 -0.5000000 -0.0000000 )
                  (  0.0000000  0.0000000  1.0000000 )


      isym =  4     inv. 180 deg rotation - cart. axis [1,0,0]   

 cryst.   s( 4) = (    -1          0          0      )
                  (    -1          1          0      )
                  (    -1          0          1      )

 cart.    s( 4) = ( -1.0000000  0.0000000 -0.0000000 )
                  (  0.0000000  1.0000000  0.0000000 )
                  (  0.0000000  0.0000000  1.0000000 )


      isym =  5     inv. 180 deg rotation - cryst. axis [0,1,0]  

 cryst.   s( 5) = (     0          1          0      )
                  (     1          0          0      )
                  (     0          0          1      )

 cart.    s( 5) = (  0.5000000  0.8660254  0.0000000 )
                  (  0.8660254 -0.5000000 -0.0000000 )
                  (  0.0000000  0.0000000  1.0000000 )


      isym =  6     inv. 180 deg rotation - cryst. axis [1,1,0]  

 cryst.   s( 6) = (     1         -1          0      )
                  (     0         -1          0      )
                  (     0         -1          1      )

 cart.    s( 6) = (  0.5000000 -0.8660254 -0.0000000 )
                  ( -0.8660254 -0.5000000 -0.0000000 )
                  (  0.0000000  0.0000000  1.0000000 )


   Cartesian axes

     site n.     atom                  positions (alat units)
         1           As  tau(   1) = (   0.5000000   0.2886751   0.2041241  )
         2           Ga  tau(   2) = (   0.0000000   0.0000000   0.0000000  )

   Crystallographic axes

     site n.     atom                  positions (cryst. coord.)
         1           As  tau(   1) = (  0.2500000  0.2500000  0.2500000  )
         2           Ga  tau(   2) = (  0.0000000  0.0000000  0.0000000  )

     number of k points=    81  Marzari-Vanderbilt smearing, width (Ry)=  0.0050
                       cart. coord. in units 2pi/alat
        k(    1) = (   0.5000000   0.2886751   0.2041241), wk =   0.0123457
        k(    2) = (   0.4750000   0.2742414   0.1939179), wk =   0.0123457
        k(    3) = (   0.4500000   0.2598076   0.1837117), wk =   0.0123457
        k(    4) = (   0.4250000   0.2453739   0.1735055), wk =   0.0123457
        k(    5) = (   0.4000000   0.2309401   0.1632993), wk =   0.0123457
        k(    6) = (   0.3750000   0.2165064   0.1530931), wk =   0.0123457
        k(    7) = (   0.3500000   0.2020726   0.1428869), wk =   0.0123457
        k(    8) = (   0.3250000   0.1876388   0.1326807), wk =   0.0123457
        k(    9) = (   0.3000000   0.1732051   0.1224745), wk =   0.0123457
        k(   10) = (   0.2750000   0.1587713   0.1122683), wk =   0.0123457
        k(   11) = (   0.2500000   0.1443376   0.1020621), wk =   0.0123457
        k(   12) = (   0.2250000   0.1299038   0.0918559), wk =   0.0123457
        k(   13) = (   0.2000000   0.1154701   0.0816497), wk =   0.0123457
        k(   14) = (   0.1750000   0.1010363   0.0714435), wk =   0.0123457
        k(   15) = (   0.1500000   0.0866025   0.0612372), wk =   0.0123457
        k(   16) = (   0.1250000   0.0721688   0.0510310), wk =   0.0123457
        k(   17) = (   0.1000000   0.0577350   0.0408248), wk =   0.0123457
        k(   18) = (   0.0750000   0.0433013   0.0306186), wk =   0.0123457
        k(   19) = (   0.0500000   0.0288675   0.0204124), wk =   0.0123457
        k(   20) = (   0.0250000   0.0144338   0.0102062), wk =   0.0123457
        k(   21) = (   0.0000000   0.0000000   0.0000000), wk =   0.0123457
        k(   22) = (   0.0250000  -0.0144338   0.0204124), wk =   0.0123457
        k(   23) = (   0.0500000  -0.0288675   0.0408248), wk =   0.0123457
        k(   24) = (   0.0750000  -0.0433013   0.0612372), wk =   0.0123457
        k(   25) = (   0.1000000  -0.0577350   0.0816497), wk =   0.0123457
        k(   26) = (   0.1250000  -0.0721688   0.1020621), wk =   0.0123457
        k(   27) = (   0.1500000  -0.0866025   0.1224745), wk =   0.0123457
        k(   28) = (   0.1750000  -0.1010363   0.1428869), wk =   0.0123457
        k(   29) = (   0.2000000  -0.1154701   0.1632993), wk =   0.0123457
        k(   30) = (   0.2250000  -0.1299038   0.1837117), wk =   0.0123457
        k(   31) = (   0.2500000  -0.1443376   0.2041241), wk =   0.0123457
        k(   32) = (   0.2750000  -0.1587713   0.2245366), wk =   0.0123457
        k(   33) = (   0.3000000  -0.1732051   0.2449490), wk =   0.0123457
        k(   34) = (   0.3250000  -0.1876388   0.2653614), wk =   0.0123457
        k(   35) = (   0.3500000  -0.2020726   0.2857738), wk =   0.0123457
        k(   36) = (   0.3750000  -0.2165064   0.3061862), wk =   0.0123457
        k(   37) = (   0.4000000  -0.2309401   0.3265986), wk =   0.0123457
        k(   38) = (   0.4250000  -0.2453739   0.3470110), wk =   0.0123457
        k(   39) = (   0.4500000  -0.2598076   0.3674235), wk =   0.0123457
        k(   40) = (   0.4750000  -0.2742414   0.3878359), wk =   0.0123457
        k(   41) = (   0.5000000  -0.2886751   0.4082483), wk =   0.0123457
        k(   42) = (   0.4937500  -0.2634161   0.4184545), wk =   0.0123457
        k(   43) = (   0.4875000  -0.2381570   0.4286607), wk =   0.0123457
        k(   44) = (   0.4812500  -0.2128979   0.4388669), wk =   0.0123457
        k(   45) = (   0.4750000  -0.1876388   0.4490731), wk =   0.0123457
        k(   46) = (   0.4687500  -0.1623798   0.4592793), wk =   0.0123457
        k(   47) = (   0.4625000  -0.1371207   0.4694855), wk =   0.0123457
        k(   48) = (   0.4562500  -0.1118616   0.4796917), wk =   0.0123457
        k(   49) = (   0.4500000  -0.0866025   0.4898979), wk =   0.0123457
        k(   50) = (   0.4437500  -0.0613435   0.5001042), wk =   0.0123457
        k(   51) = (   0.4375000  -0.0360844   0.5103104), wk =   0.0123457
        k(   52) = (   0.4312500  -0.0108253   0.5205166), wk =   0.0123457
        k(   53) = (   0.4250000   0.0144338   0.5307228), wk =   0.0123457
        k(   54) = (   0.4187500   0.0396928   0.5409290), wk =   0.0123457
        k(   55) = (   0.4125000   0.0649519   0.5511352), wk =   0.0123457
        k(   56) = (   0.4062500   0.0902110   0.5613414), wk =   0.0123457
        k(   57) = (   0.4000000   0.1154701   0.5715476), wk =   0.0123457
        k(   58) = (   0.3937500   0.1407291   0.5817538), wk =   0.0123457
        k(   59) = (   0.3875000   0.1659882   0.5919600), wk =   0.0123457
        k(   60) = (   0.3812500   0.1912473   0.6021662), wk =   0.0123457
        k(   61) = (   0.3750000   0.2165064   0.6123724), wk =   0.0123457
        k(   62) = (   0.3562500   0.2056810   0.5817538), wk =   0.0123457
        k(   63) = (   0.3375000   0.1948557   0.5511352), wk =   0.0123457
        k(   64) = (   0.3187500   0.1840304   0.5205166), wk =   0.0123457
        k(   65) = (   0.3000000   0.1732051   0.4898979), wk =   0.0123457
        k(   66) = (   0.2812500   0.1623798   0.4592793), wk =   0.0123457
        k(   67) = (   0.2625000   0.1515544   0.4286607), wk =   0.0123457
        k(   68) = (   0.2437500   0.1407291   0.3980421), wk =   0.0123457
        k(   69) = (   0.2250000   0.1299038   0.3674235), wk =   0.0123457
        k(   70) = (   0.2062500   0.1190785   0.3368048), wk =   0.0123457
        k(   71) = (   0.1875000   0.1082532   0.3061862), wk =   0.0123457
        k(   72) = (   0.1687500   0.0974279   0.2755676), wk =   0.0123457
        k(   73) = (   0.1500000   0.0866025   0.2449490), wk =   0.0123457
        k(   74) = (   0.1312500   0.0757772   0.2143304), wk =   0.0123457
        k(   75) = (   0.1125000   0.0649519   0.1837117), wk =   0.0123457
        k(   76) = (   0.0937500   0.0541266   0.1530931), wk =   0.0123457
        k(   77) = (   0.0750000   0.0433013   0.1224745), wk =   0.0123457
        k(   78) = (   0.0562500   0.0324760   0.0918559), wk =   0.0123457
        k(   79) = (   0.0375000   0.0216506   0.0612372), wk =   0.0123457
        k(   80) = (   0.0187500   0.0108253   0.0306186), wk =   0.0123457
        k(   81) = (   0.0000000   0.0000000   0.0000000), wk =   0.0123457

                       cryst. coord.
        k(    1) = (   0.5000000   0.5000000   0.5000000), wk =   0.0123457
        k(    2) = (   0.4750000   0.4750000   0.4750000), wk =   0.0123457
        k(    3) = (   0.4500000   0.4500000   0.4500000), wk =   0.0123457
        k(    4) = (   0.4250000   0.4250000   0.4250000), wk =   0.0123457
        k(    5) = (   0.4000000   0.4000000   0.4000000), wk =   0.0123457
        k(    6) = (   0.3750000   0.3750000   0.3750000), wk =   0.0123457
        k(    7) = (   0.3500000   0.3500000   0.3500000), wk =   0.0123457
        k(    8) = (   0.3250000   0.3250000   0.3250000), wk =   0.0123457
        k(    9) = (   0.3000000   0.3000000   0.3000000), wk =   0.0123457
        k(   10) = (   0.2750000   0.2750000   0.2750000), wk =   0.0123457
        k(   11) = (   0.2500000   0.2500000   0.2500000), wk =   0.0123457
        k(   12) = (   0.2250000   0.2250000   0.2250000), wk =   0.0123457
        k(   13) = (   0.2000000   0.2000000   0.2000000), wk =   0.0123457
        k(   14) = (   0.1750000   0.1750000   0.1750000), wk =   0.0123457
        k(   15) = (   0.1500000   0.1500000   0.1500000), wk =   0.0123457
        k(   16) = (   0.1250000   0.1250000   0.1250000), wk =   0.0123457
        k(   17) = (   0.1000000   0.1000000   0.1000000), wk =   0.0123457
        k(   18) = (   0.0750000   0.0750000   0.0750000), wk =   0.0123457
        k(   19) = (   0.0500000   0.0500000   0.0500000), wk =   0.0123457
        k(   20) = (   0.0250000   0.0250000   0.0250000), wk =   0.0123457
        k(   21) = (   0.0000000   0.0000000   0.0000000), wk =   0.0123457
        k(   22) = (   0.0250000   0.0000000   0.0250000), wk =   0.0123457
        k(   23) = (   0.0500000   0.0000000   0.0500000), wk =   0.0123457
        k(   24) = (   0.0750000   0.0000000   0.0750000), wk =   0.0123457
        k(   25) = (   0.1000000   0.0000000   0.1000000), wk =   0.0123457
        k(   26) = (   0.1250000   0.0000000   0.1250000), wk =   0.0123457
        k(   27) = (   0.1500000   0.0000000   0.1500000), wk =   0.0123457
        k(   28) = (   0.1750000   0.0000000   0.1750000), wk =   0.0123457
        k(   29) = (   0.2000000   0.0000000   0.2000000), wk =   0.0123457
        k(   30) = (   0.2250000  -0.0000000   0.2250000), wk =   0.0123457
        k(   31) = (   0.2500000   0.0000000   0.2500000), wk =   0.0123457
        k(   32) = (   0.2750000   0.0000000   0.2750000), wk =   0.0123457
        k(   33) = (   0.3000000   0.0000000   0.3000000), wk =   0.0123457
        k(   34) = (   0.3250000   0.0000000   0.3250000), wk =   0.0123457
        k(   35) = (   0.3500000   0.0000000   0.3500000), wk =   0.0123457
        k(   36) = (   0.3750000   0.0000000   0.3750000), wk =   0.0123457
        k(   37) = (   0.4000000   0.0000000   0.4000000), wk =   0.0123457
        k(   38) = (   0.4250000   0.0000000   0.4250000), wk =   0.0123457
        k(   39) = (   0.4500000  -0.0000000   0.4500000), wk =   0.0123457
        k(   40) = (   0.4750000  -0.0000000   0.4750000), wk =   0.0123457
        k(   41) = (   0.5000000   0.0000000   0.5000000), wk =   0.0123457
        k(   42) = (   0.4937500   0.0187500   0.5125000), wk =   0.0123457
        k(   43) = (   0.4875000   0.0375000   0.5250000), wk =   0.0123457
        k(   44) = (   0.4812500   0.0562500   0.5375000), wk =   0.0123457
        k(   45) = (   0.4750000   0.0750000   0.5500000), wk =   0.0123457
        k(   46) = (   0.4687500   0.0937500   0.5625000), wk =   0.0123457
        k(   47) = (   0.4625000   0.1125000   0.5750000), wk =   0.0123457
        k(   48) = (   0.4562500   0.1312500   0.5875000), wk =   0.0123457
        k(   49) = (   0.4500000   0.1500000   0.6000000), wk =   0.0123457
        k(   50) = (   0.4437500   0.1687500   0.6125000), wk =   0.0123457
        k(   51) = (   0.4375000   0.1875000   0.6250000), wk =   0.0123457
        k(   52) = (   0.4312500   0.2062500   0.6375000), wk =   0.0123457
        k(   53) = (   0.4250000   0.2250000   0.6500000), wk =   0.0123457
        k(   54) = (   0.4187500   0.2437500   0.6625000), wk =   0.0123457
        k(   55) = (   0.4125000   0.2625000   0.6750000), wk =   0.0123457
        k(   56) = (   0.4062500   0.2812500   0.6875000), wk =   0.0123457
        k(   57) = (   0.4000000   0.3000000   0.7000000), wk =   0.0123457
        k(   58) = (   0.3937500   0.3187500   0.7125000), wk =   0.0123457
        k(   59) = (   0.3875000   0.3375000   0.7250000), wk =   0.0123457
        k(   60) = (   0.3812500   0.3562500   0.7375000), wk =   0.0123457
        k(   61) = (   0.3750000   0.3750000   0.7500000), wk =   0.0123457
        k(   62) = (   0.3562500   0.3562500   0.7125000), wk =   0.0123457
        k(   63) = (   0.3375000   0.3375000   0.6750000), wk =   0.0123457
        k(   64) = (   0.3187500   0.3187500   0.6375000), wk =   0.0123457
        k(   65) = (   0.3000000   0.3000000   0.6000000), wk =   0.0123457
        k(   66) = (   0.2812500   0.2812500   0.5625000), wk =   0.0123457
        k(   67) = (   0.2625000   0.2625000   0.5250000), wk =   0.0123457
        k(   68) = (   0.2437500   0.2437500   0.4875000), wk =   0.0123457
        k(   69) = (   0.2250000   0.2250000   0.4500000), wk =   0.0123457
        k(   70) = (   0.2062500   0.2062500   0.4125000), wk =   0.0123457
        k(   71) = (   0.1875000   0.1875000   0.3750000), wk =   0.0123457
        k(   72) = (   0.1687500   0.1687500   0.3375000), wk =   0.0123457
        k(   73) = (   0.1500000   0.1500000   0.3000000), wk =   0.0123457
        k(   74) = (   0.1312500   0.1312500   0.2625000), wk =   0.0123457
        k(   75) = (   0.1125000   0.1125000   0.2250000), wk =   0.0123457
        k(   76) = (   0.0937500   0.0937500   0.1875000), wk =   0.0123457
        k(   77) = (   0.0750000   0.0750000   0.1500000), wk =   0.0123457
        k(   78) = (   0.0562500   0.0562500   0.1125000), wk =   0.0123457
        k(   79) = (   0.0375000   0.0375000   0.0750000), wk =   0.0123457
        k(   80) = (   0.0187500   0.0187500   0.0375000), wk =   0.0123457
        k(   81) = (   0.0000000   0.0000000   0.0000000), wk =   0.0123457

     Dense  grid:    15353 G-vectors     FFT dimensions: (  36,  36,  36)

     Dynamical RAM for                 wfc:       0.76 MB

     Dynamical RAM for     wfc (w. buffer):       0.76 MB

     Dynamical RAM for           str. fact:       0.23 MB

     Dynamical RAM for           local pot:       0.00 MB

     Dynamical RAM for          nlocal pot:       0.70 MB

     Dynamical RAM for                qrad:       5.95 MB

     Dynamical RAM for          rho,v,vnew:       3.54 MB

     Dynamical RAM for           G-vectors:       0.50 MB

     Dynamical RAM for          h,s,v(r/c):       0.50 MB

     Dynamical RAM for          <psi|beta>:       0.04 MB

     Dynamical RAM for                 psi:       3.04 MB

     Dynamical RAM for                hpsi:       3.04 MB

     Dynamical RAM for                spsi:       3.04 MB

     Dynamical RAM for      wfcinit/wfcrot:       1.15 MB

     Dynamical RAM for           addusdens:      71.57 MB

     Estimated static dynamical RAM per process >      13.46 MB

     Estimated max dynamical RAM per process >      85.03 MB

     Estimated total dynamical RAM >     170.07 MB

     Check: negative core charge=   -0.000002

     The potential is recalculated from file :
     ./outputs/gaas.save/charge-density

     Starting wfcs are   26 randomized atomic wfcs
     Checking if some PAW data can be deallocated... 
       PAW data deallocated on    1 nodes for type:  1
       PAW data deallocated on    1 nodes for type:  2

     Band Structure Calculation
     Davidson diagonalization with overlap

     Computing kpt #:     1  of    81
     total cpu time spent up to now is        3.6 secs

     Computing kpt #:     2  of    81
     total cpu time spent up to now is        5.0 secs

     Computing kpt #:     3  of    81
     total cpu time spent up to now is        6.3 secs

     Computing kpt #:     4  of    81
     total cpu time spent up to now is        7.6 secs

     Computing kpt #:     5  of    81
     total cpu time spent up to now is        9.0 secs

     Computing kpt #:     6  of    81
     total cpu time spent up to now is       10.4 secs

     Computing kpt #:     7  of    81
     total cpu time spent up to now is       12.6 secs

     Computing kpt #:     8  of    81
     total cpu time spent up to now is       14.2 secs

     Computing kpt #:     9  of    81
     total cpu time spent up to now is       15.6 secs

     Computing kpt #:    10  of    81
     total cpu time spent up to now is       16.9 secs

     Computing kpt #:    11  of    81
     total cpu time spent up to now is       18.2 secs

     Computing kpt #:    12  of    81
     total cpu time spent up to now is       19.5 secs

     Computing kpt #:    13  of    81
     total cpu time spent up to now is       20.8 secs

     Computing kpt #:    14  of    81
     total cpu time spent up to now is       22.0 secs

     Computing kpt #:    15  of    81
     total cpu time spent up to now is       23.3 secs

     Computing kpt #:    16  of    81
     total cpu time spent up to now is        9.2 secs

     Computing kpt #:    17  of    81
     total cpu time spent up to now is       10.2 secs

     Computing kpt #:    18  of    81
     total cpu time spent up to now is       11.2 secs

     Computing kpt #:    19  of    81
     total cpu time spent up to now is       12.3 secs

     Computing kpt #:    20  of    81
     total cpu time spent up to now is       13.2 secs

     Computing kpt #:    21  of    81
     total cpu time spent up to now is       14.2 secs

     Computing kpt #:    22  of    81
     total cpu time spent up to now is       15.2 secs

     Computing kpt #:    23  of    81
     total cpu time spent up to now is       16.3 secs

     Computing kpt #:    24  of    81
     total cpu time spent up to now is       17.4 secs

     Computing kpt #:    25  of    81
     total cpu time spent up to now is       18.5 secs

     Computing kpt #:    26  of    81
     total cpu time spent up to now is       19.7 secs

     Computing kpt #:    27  of    81
     total cpu time spent up to now is       21.0 secs

     Computing kpt #:    28  of    81
     total cpu time spent up to now is       22.2 secs

     Computing kpt #:    29  of    81
     total cpu time spent up to now is       23.6 secs

     Computing kpt #:    30  of    81
     total cpu time spent up to now is       25.0 secs

     Computing kpt #:    31  of    81
     total cpu time spent up to now is       26.4 secs

     Computing kpt #:    32  of    81
     total cpu time spent up to now is       27.8 secs

     Computing kpt #:    33  of    81
     total cpu time spent up to now is       10.5 secs

     Computing kpt #:    34  of    81
     total cpu time spent up to now is       12.0 secs

     Computing kpt #:    35  of    81
     total cpu time spent up to now is       13.4 secs

     Computing kpt #:    36  of    81
     total cpu time spent up to now is       14.9 secs

     Computing kpt #:    37  of    81
     total cpu time spent up to now is       16.4 secs

     Computing kpt #:    38  of    81
     total cpu time spent up to now is       17.8 secs

     Computing kpt #:    39  of    81
     total cpu time spent up to now is       19.4 secs

     Computing kpt #:    40  of    81
     total cpu time spent up to now is       20.9 secs

     Computing kpt #:    41  of    81
     total cpu time spent up to now is       22.3 secs

     Computing kpt #:    42  of    81
     total cpu time spent up to now is       23.8 secs

     Computing kpt #:    43  of    81
     total cpu time spent up to now is       25.3 secs

     Computing kpt #:    44  of    81
     total cpu time spent up to now is       26.8 secs

     Computing kpt #:    45  of    81
     total cpu time spent up to now is       28.2 secs

     Computing kpt #:    46  of    81
     total cpu time spent up to now is       10.7 secs

     Computing kpt #:    47  of    81
     total cpu time spent up to now is       12.1 secs

     Computing kpt #:    48  of    81
     total cpu time spent up to now is       13.6 secs

     Computing kpt #:    49  of    81
     total cpu time spent up to now is       15.0 secs

     Computing kpt #:    50  of    81
     total cpu time spent up to now is       16.3 secs

     Computing kpt #:    51  of    81
     total cpu time spent up to now is       17.7 secs

     Computing kpt #:    52  of    81
     total cpu time spent up to now is       19.2 secs

     Computing kpt #:    53  of    81
     total cpu time spent up to now is       71.5 secs

     Computing kpt #:    54  of    81
     total cpu time spent up to now is       73.0 secs

     Computing kpt #:    55  of    81
     total cpu time spent up to now is       74.6 secs

     Computing kpt #:    56  of    81
     total cpu time spent up to now is       76.1 secs

     Computing kpt #:    57  of    81
     total cpu time spent up to now is       77.7 secs

     Computing kpt #:    58  of    81
     total cpu time spent up to now is       79.2 secs

     Computing kpt #:    59  of    81
     total cpu time spent up to now is       80.7 secs

     Computing kpt #:    60  of    81
     total cpu time spent up to now is       82.4 secs

     Computing kpt #:    61  of    81
     total cpu time spent up to now is       83.8 secs

     Computing kpt #:    62  of    81
     total cpu time spent up to now is       85.3 secs

     Computing kpt #:    63  of    81
     total cpu time spent up to now is       87.0 secs

     Computing kpt #:    64  of    81
     total cpu time spent up to now is       88.5 secs

     Computing kpt #:    65  of    81
     total cpu time spent up to now is       90.0 secs

     Computing kpt #:    66  of    81
     total cpu time spent up to now is       91.4 secs

     Computing kpt #:    67  of    81
     total cpu time spent up to now is       74.3 secs

     Computing kpt #:    68  of    81
     total cpu time spent up to now is       75.6 secs

     Computing kpt #:    69  of    81
     total cpu time spent up to now is       77.0 secs

     Computing kpt #:    70  of    81
     total cpu time spent up to now is       78.3 secs

     Computing kpt #:    71  of    81
     total cpu time spent up to now is       79.7 secs

     Computing kpt #:    72  of    81
     total cpu time spent up to now is       81.2 secs

     Computing kpt #:    73  of    81
     total cpu time spent up to now is       82.5 secs

     Computing kpt #:    74  of    81
     total cpu time spent up to now is       83.8 secs

     Computing kpt #:    75  of    81
     total cpu time spent up to now is       85.1 secs

     Computing kpt #:    76  of    81
     total cpu time spent up to now is       86.5 secs

     Computing kpt #:    77  of    81
     total cpu time spent up to now is       87.6 secs

     Computing kpt #:    78  of    81
     total cpu time spent up to now is       88.7 secs

     Computing kpt #:    79  of    81
     total cpu time spent up to now is       89.8 secs

     Computing kpt #:    80  of    81
     total cpu time spent up to now is       90.8 secs

     Computing kpt #:    81  of    81
     total cpu time spent up to now is       91.9 secs

     ethr =  5.56E-11,  avg # of iterations = 27.1

     total cpu time spent up to now is       91.9 secs

     End of band structure calculation

          k = 0.5000 0.2887 0.2041 (  1916 PWs)   bands (ev):

    -8.8401  -8.8401  -8.8188  -8.8188  -8.4014  -8.4014  -8.3666  -8.3666
    -8.3316  -8.3316  -4.6395  -4.6395  -0.2545  -0.2545   4.9534   4.9534
     5.1556   5.1556   6.9854   6.9854  10.6920  10.6920  10.7863  10.7863
    13.8721  13.8721

          k = 0.4750 0.2742 0.1939 (  1910 PWs)   bands (ev):

    -8.8400  -8.8400  -8.8192  -8.8185  -8.4013  -8.4013  -8.3665  -8.3665
    -8.3322  -8.3313  -4.6559  -4.6559  -0.2242  -0.2242   4.9581   4.9581
     5.1601   5.1605   6.9903   6.9903  10.6941  10.6941  10.7888  10.7890
    13.8711  13.8711

          k = 0.4500 0.2598 0.1837 (  1925 PWs)   bands (ev):

    -8.8397  -8.8397  -8.8197  -8.8181  -8.4013  -8.4013  -8.3663  -8.3663
    -8.3329  -8.3312  -4.7036  -4.7036  -0.1349  -0.1349   4.9721   4.9721
     5.1739   5.1748   7.0050   7.0050  10.7001  10.7001  10.7958  10.7964
    13.8645  13.8645

          k = 0.4250 0.2454 0.1735 (  1919 PWs)   bands (ev):

    -8.8391  -8.8391  -8.8202  -8.8179  -8.4011  -8.4011  -8.3659  -8.3659
    -8.3339  -8.3313  -4.7784  -4.7784   0.0094   0.0094   4.9954   4.9954
     5.1972   5.1985   7.0294   7.0294  10.7087  10.7087  10.8066  10.8074
    13.8398  13.8398

          k = 0.4000 0.2309 0.1633 (  1910 PWs)   bands (ev):

    -8.8383  -8.8383  -8.8206  -8.8177  -8.4008  -8.4008  -8.3653  -8.3653
    -8.3349  -8.3316  -4.8750  -4.8750   0.2027   0.2027   5.0276   5.0276
     5.2295   5.2313   7.0632   7.0632  10.7182  10.7182  10.8189  10.8200
    13.7700  13.7700

          k = 0.3750 0.2165 0.1531 (  1916 PWs)   bands (ev):

    -8.8374  -8.8374  -8.8211  -8.8175  -8.4005  -8.4005  -8.3646  -8.3646
    -8.3362  -8.3321  -4.9872  -4.9872   0.4389   0.4389   5.0687   5.0687
     5.2707   5.2728   7.1058   7.1058  10.7257  10.7257  10.8301  10.8315
    13.6157  13.6157

          k = 0.3500 0.2021 0.1429 (  1913 PWs)   bands (ev):

    -8.8363  -8.8363  -8.8216  -8.8175  -8.4001  -8.4001  -8.3638  -8.3638
    -8.3375  -8.3329  -5.1093  -5.1093   0.7118   0.7118   5.1182   5.1182
     5.3205   5.3229   7.1567   7.1567  10.7278  10.7278  10.8366  10.8383
    13.3574  13.3574

          k = 0.3250 0.1876 0.1327 (  1913 PWs)   bands (ev):

    -8.8351  -8.8351  -8.8220  -8.8175  -8.3996  -8.3996  -8.3628  -8.3628
    -8.3388  -8.3338  -5.2364  -5.2364   1.0161   1.0161   5.1755   5.1755
     5.3783   5.3810   7.2146   7.2146  10.7206  10.7206  10.8342  10.8363
    13.0202  13.0202

          k = 0.3000 0.1732 0.1225 (  1910 PWs)   bands (ev):

    -8.8338  -8.8338  -8.8225  -8.8177  -8.3991  -8.3991  -8.3616  -8.3616
    -8.3402  -8.3348  -5.3645  -5.3645   1.3471   1.3471   5.2403   5.2403
     5.4436   5.4466   7.2783   7.2783  10.6999  10.6999  10.8185  10.8209
    12.6419  12.6419

          k = 0.2750 0.1588 0.1123 (  1910 PWs)   bands (ev):

    -8.8325  -8.8325  -8.8229  -8.8179  -8.3985  -8.3985  -8.3604  -8.3604
    -8.3416  -8.3360  -5.4903  -5.4903   1.7007   1.7007   5.3115   5.3115
     5.5156   5.5187   7.3453   7.3453  10.6621  10.6621  10.7855  10.7880
    12.2482  12.2482

          k = 0.2500 0.1443 0.1021 (  1916 PWs)   bands (ev):

    -8.8311  -8.8311  -8.8232  -8.8181  -8.3978  -8.3978  -8.3590  -8.3590
    -8.3429  -8.3372  -5.6111  -5.6111   2.0737   2.0737   5.3883   5.3883
     5.5933   5.5965   7.4124   7.4124  10.6050  10.6050  10.7324  10.7350
    11.8539  11.8539

          k = 0.2250 0.1299 0.0919 (  1922 PWs)   bands (ev):

    -8.8298  -8.8298  -8.8235  -8.8185  -8.3971  -8.3971  -8.3576  -8.3576
    -8.3442  -8.3386  -5.7250  -5.7250   2.4627   2.4627   5.4693   5.4693
     5.6754   5.6787   7.4748   7.4748  10.5282  10.5282  10.6586  10.6611
    11.4696  11.4696

          k = 0.2000 0.1155 0.0816 (  1922 PWs)   bands (ev):

    -8.8285  -8.8285  -8.8237  -8.8189  -8.3964  -8.3964  -8.3561  -8.3561
    -8.3453  -8.3399  -5.8302  -5.8302   2.8651   2.8651   5.5530   5.5530
     5.7604   5.7637   7.5254   7.5254  10.4340  10.4340  10.5662  10.5684
    11.1040  11.1040

          k = 0.1750 0.1010 0.0714 (  1931 PWs)   bands (ev):

    -8.8273  -8.8273  -8.8239  -8.8194  -8.3957  -8.3957  -8.3546  -8.3546
    -8.3464  -8.3413  -5.9255  -5.9255   3.2779   3.2779   5.6375   5.6375
     5.8463   5.8495   7.5538   7.5538  10.3264  10.3264  10.4596  10.4615
    10.7674  10.7674

          k = 0.1500 0.0866 0.0612 (  1922 PWs)   bands (ev):

    -8.8262  -8.8262  -8.8240  -8.8199  -8.3950  -8.3950  -8.3532  -8.3532
    -8.3472  -8.3426  -6.0099  -6.0099   3.6983   3.6983   5.7207   5.7207
     5.9310   5.9340   7.5462   7.5462  10.2103  10.2103  10.3453  10.3468
    10.4734  10.4734

          k = 0.1250 0.0722 0.0510 (  1913 PWs)   bands (ev):

    -8.8252  -8.8252  -8.8240  -8.8204  -8.3943  -8.3943  -8.3518  -8.3518
    -8.3478  -8.3438  -6.0826  -6.0826   4.1232   4.1232   5.7997   5.7997
     6.0114   6.0141   7.4865   7.4865  10.0874  10.0874  10.2306  10.2318
    10.2403  10.2403

          k = 0.1000 0.0577 0.0408 (  1901 PWs)   bands (ev):

    -8.8244  -8.8244  -8.8239  -8.8209  -8.3937  -8.3937  -8.3505  -8.3505
    -8.3483  -8.3449  -6.1429  -6.1429   4.5489   4.5489   5.8718   5.8718
     6.0845   6.0868   7.3606   7.3606   9.9585   9.9585  10.0841  10.0841
    10.1233  10.1241

          k = 0.0750 0.0433 0.0306 (  1910 PWs)   bands (ev):

    -8.8238  -8.8237  -8.8237  -8.8214  -8.3933  -8.3933  -8.3495  -8.3495
    -8.3486  -8.3460  -6.1903  -6.1903   4.9706   4.9706   5.9341   5.9341
     6.1466   6.1484   7.1632   7.1632   9.8459   9.8459   9.9897   9.9897
    10.0306  10.0311

          k = 0.0500 0.0289 0.0204 (  1917 PWs)   bands (ev):

    -8.8235  -8.8232  -8.8232  -8.8220  -8.3929  -8.3929  -8.3488  -8.3488
    -8.3486  -8.3469  -6.2244  -6.2244   5.3801   5.3801   5.9863   5.9863
     6.1943   6.1955   6.9006   6.9006   9.7678   9.7678   9.9341   9.9341
     9.9590   9.9593

          k = 0.0250 0.0144 0.0102 (  1917 PWs)   bands (ev):

    -8.8232  -8.8230  -8.8230  -8.8224  -8.3927  -8.3927  -8.3485  -8.3483
    -8.3483  -8.3476  -6.2450  -6.2450   5.7482   5.7482   6.0461   6.0461
     6.2245   6.2251   6.5888   6.5888   9.7228   9.7228   9.9064   9.9064
     9.9138   9.9140

          k = 0.0000 0.0000 0.0000 (  1917 PWs)   bands (ev):

    -8.8229  -8.8229  -8.8229  -8.8229  -8.3926  -8.3926  -8.3481  -8.3481
    -8.3481  -8.3481  -6.2518  -6.2518   5.9063   5.9063   6.2350   6.2350
     6.2350   6.2350   6.2798   6.2798   9.7081   9.7081   9.8984   9.8984
     9.8984   9.8984

          k = 0.0250-0.0144 0.0204 (  1917 PWs)   bands (ev):

    -8.8233  -8.8233  -8.8225  -8.8225  -8.3927  -8.3927  -8.3486  -8.3486
    -8.3478  -8.3478  -6.2427  -6.2427   5.7123   5.7123   6.0216   6.0216
     6.2020   6.2020   6.6567   6.6567   9.7193   9.7193   9.8968   9.8968
     9.9393   9.9393

          k = 0.0500-0.0289 0.0408 (  1913 PWs)   bands (ev):

    -8.8240  -8.8240  -8.8221  -8.8221  -8.3930  -8.3930  -8.3490  -8.3490
    -8.3476  -8.3476  -6.2152  -6.2152   5.3152   5.3152   5.9130   5.9130
     6.1083   6.1083   7.0734   7.0734   9.6739   9.6739   9.9726   9.9726
    10.0580  10.0580

          k = 0.0750-0.0433 0.0612 (  1917 PWs)   bands (ev):

    -8.8250  -8.8250  -8.8215  -8.8215  -8.3936  -8.3936  -8.3495  -8.3495
    -8.3474  -8.3474  -6.1698  -6.1698   4.8955   4.8955   5.7802   5.7802
     5.9664   5.9664   7.4837   7.4837   9.5438   9.5438  10.1584  10.1584
    10.2446  10.2446

          k = 0.1000-0.0577 0.0816 (  1913 PWs)   bands (ev):

    -8.8264  -8.8264  -8.8207  -8.8207  -8.3943  -8.3943  -8.3498  -8.3498
    -8.3473  -8.3473  -6.1065  -6.1065   4.4748   4.4748   5.6184   5.6184
     5.7913   5.7913   7.8739   7.8739   9.3781   9.3781  10.4119  10.4119
    10.4866  10.4866

          k = 0.1250-0.0722 0.1021 (  1912 PWs)   bands (ev):

    -8.8281  -8.8281  -8.8198  -8.8198  -8.3954  -8.3954  -8.3500  -8.3500
    -8.3472  -8.3472  -6.0261  -6.0261   4.0572   4.0572   5.4368   5.4368
     5.5961   5.5961   8.2225   8.2225   9.2103   9.2103  10.7115  10.7115
    10.7720  10.7720

          k = 0.1500-0.0866 0.1225 (  1920 PWs)   bands (ev):

    -8.8301  -8.8301  -8.8187  -8.8187  -8.3967  -8.3967  -8.3498  -8.3498
    -8.3472  -8.3472  -5.9290  -5.9290   3.6443   3.6443   5.2446   5.2446
     5.3913   5.3913   8.4764   8.4764   9.0915   9.0915  11.0446  11.0446
    11.0909  11.0909

          k = 0.1750-0.1010 0.1429 (  1928 PWs)   bands (ev):

    -8.8323  -8.8323  -8.8174  -8.8174  -8.3982  -8.3982  -8.3494  -8.3494
    -8.3471  -8.3471  -5.8160  -5.8160   3.2371   3.2371   5.0490   5.0490
     5.1847   5.1847   8.5303   8.5303   9.1151   9.1151  11.4022  11.4022
    11.4355  11.4355

          k = 0.2000-0.1155 0.1633 (  1924 PWs)   bands (ev):

    -8.8347  -8.8347  -8.8161  -8.8161  -8.3999  -8.3999  -8.3486  -8.3486
    -8.3470  -8.3470  -5.6879  -5.6879   2.8367   2.8367   4.8556   4.8556
     4.9817   4.9817   8.4230   8.4230   9.2245   9.2245  11.7777  11.7777
    11.8000  11.8000

          k = 0.2250-0.1299 0.1837 (  1936 PWs)   bands (ev):

    -8.8372  -8.8372  -8.8148  -8.8148  -8.4017  -8.4017  -8.3478  -8.3478
    -8.3466  -8.3466  -5.5459  -5.5459   2.4439   2.4439   4.6684   4.6684
     4.7864   4.7864   8.2749   8.2749   9.2852   9.2852  12.1650  12.1650
    12.1808  12.1808

          k = 0.2500-0.1443 0.2041 (  1924 PWs)   bands (ev):

    -8.8397  -8.8397  -8.8134  -8.8134  -8.4034  -8.4034  -8.3473  -8.3473
    -8.3455  -8.3455  -5.3913  -5.3913   2.0600   2.0600   4.4907   4.4907
     4.6018   4.6018   8.1268   8.1268   9.2586   9.2586  12.5581  12.5581
    12.5766  12.5766

          k = 0.2750-0.1588 0.2245 (  1924 PWs)   bands (ev):

    -8.8422  -8.8422  -8.8120  -8.8120  -8.4051  -8.4051  -8.3472  -8.3472
    -8.3440  -8.3440  -5.2259  -5.2259   1.6865   1.6865   4.3249   4.3249
     4.4302   4.4302   7.9909   7.9909   9.1536   9.1536  12.9553  12.9553
    12.9829  12.9829

          k = 0.3000-0.1732 0.2449 (  1932 PWs)   bands (ev):

    -8.8447  -8.8447  -8.8107  -8.8107  -8.4067  -8.4067  -8.3471  -8.3471
    -8.3424  -8.3424  -5.0517  -5.0517   1.3258   1.3258   4.1728   4.1728
     4.2732   4.2732   7.8720   7.8720   8.9957   8.9957  13.3564  13.3564
    13.3947  13.3947

          k = 0.3250-0.1876 0.2654 (  1936 PWs)   bands (ev):

    -8.8470  -8.8470  -8.8095  -8.8095  -8.4081  -8.4081  -8.3470  -8.3470
    -8.3406  -8.3406  -4.8716  -4.8716   0.9806   0.9806   4.0358   4.0358
     4.1322   4.1322   7.7729   7.7729   8.8100   8.8100  13.7600  13.7600
    13.8082  13.8082

          k = 0.3500-0.2021 0.2858 (  1932 PWs)   bands (ev):

    -8.8491  -8.8491  -8.8083  -8.8083  -8.4094  -8.4094  -8.3469  -8.3469
    -8.3389  -8.3389  -4.6895  -4.6895   0.6548   0.6548   3.9152   3.9152
     4.0083   4.0083   7.6952   7.6952   8.6156   8.6156  14.1630  14.1630
    14.2196  14.2196

          k = 0.3750-0.2165 0.3062 (  1916 PWs)   bands (ev):

    -8.8510  -8.8510  -8.8073  -8.8073  -8.4104  -8.4104  -8.3467  -8.3467
    -8.3373  -8.3373  -4.5104  -4.5104   0.3537   0.3537   3.8118   3.8118
     3.9022   3.9022   7.6399   7.6399   8.4255   8.4255  14.5603  14.5603
    14.6232  14.6232

          k = 0.4000-0.2309 0.3266 (  1936 PWs)   bands (ev):

    -8.8526  -8.8526  -8.8065  -8.8065  -8.4113  -8.4113  -8.3467  -8.3467
    -8.3360  -8.3360  -4.3413  -4.3413   0.0845   0.0845   3.7263   3.7263
     3.8146   3.8146   7.6078   7.6078   8.2482   8.2482  14.9429  14.9429
    15.0097  15.0097

          k = 0.4250-0.2454 0.3470 (  1920 PWs)   bands (ev):

    -8.8539  -8.8539  -8.8058  -8.8058  -8.4120  -8.4120  -8.3465  -8.3465
    -8.3348  -8.3348  -4.1911  -4.1911  -0.1439  -0.1439   3.6592   3.6592
     3.7460   3.7460   7.5992   7.5992   8.0895   8.0895  15.2970  15.2970
    15.3645  15.3645

          k = 0.4500-0.2598 0.3674 (  1916 PWs)   bands (ev):

    -8.8548  -8.8548  -8.8054  -8.8054  -8.4124  -8.4124  -8.3465  -8.3465
    -8.3340  -8.3340  -4.0707  -4.0707  -0.3202  -0.3202   3.6111   3.6111
     3.6968   3.6968   7.6136   7.6136   7.9532   7.9532  15.5984  15.5984
    15.6627  15.6627

          k = 0.4750-0.2742 0.3878 (  1916 PWs)   bands (ev):

    -8.8554  -8.8554  -8.8051  -8.8051  -8.4127  -8.4127  -8.3464  -8.3464
    -8.3334  -8.3334  -3.9920  -3.9920  -0.4325  -0.4325   3.5821   3.5821
     3.6671   3.6671   7.6475   7.6475   7.8454   7.8454  15.8102  15.8102
    15.8682  15.8682

          k = 0.5000-0.2887 0.4082 (  1924 PWs)   bands (ev):

    -8.8556  -8.8556  -8.8050  -8.8050  -8.4128  -8.4128  -8.3464  -8.3464
    -8.3333  -8.3333  -3.9645  -3.9645  -0.4713  -0.4713   3.5724   3.5724
     3.6572   3.6572   7.6757   7.6757   7.7924   7.7924  15.8882  15.8882
    15.9425  15.9425

          k = 0.4937-0.2634 0.4185 (  1920 PWs)   bands (ev):

    -8.8579  -8.8533  -8.8054  -8.8045  -8.4165  -8.4091  -8.3470  -8.3458
    -8.3344  -8.3324  -3.9656  -3.9655  -0.4694  -0.4642   3.5530   3.5693
     3.6419   3.6494   7.6965   7.7028   7.8168   7.8302  15.7942  15.8575
    15.8760  15.9019

          k = 0.4875-0.2382 0.4287 (  1920 PWs)   bands (ev):

    -8.8600  -8.8509  -8.8058  -8.8040  -8.4202  -8.4054  -8.3475  -8.3452
    -8.3357  -8.3318  -3.9689  -3.9687  -0.4589  -0.4485   3.5120   3.5450
     3.6051   3.6198   7.7670   7.7771   7.9019   7.9258  15.5859  15.6450
    15.7379  15.7814

          k = 0.4812-0.2129 0.4389 (  1922 PWs)   bands (ev):

    -8.8620  -8.8486  -8.8062  -8.8035  -8.4239  -8.4018  -8.3479  -8.3445
    -8.3373  -8.3314  -3.9740  -3.9738  -0.4405  -0.4249   3.4515   3.5026
     3.5499   3.5744   7.8867   7.8989   8.0408   8.0723  15.2531  15.2907
    15.5553  15.6081

          k = 0.4750-0.1876 0.4491 (  1921 PWs)   bands (ev):

    -8.8639  -8.8463  -8.8065  -8.8030  -8.4274  -8.3983  -8.3483  -8.3438
    -8.3390  -8.3311  -3.9807  -3.9805  -0.4155  -0.3948   3.3742   3.4440
     3.4835   3.5213   8.0526   8.0666   8.2252   8.2627  14.8270  14.8475
    15.3450  15.3995

          k = 0.4687-0.1624 0.4593 (  1913 PWs)   bands (ev):

    -8.8655  -8.8441  -8.8067  -8.8025  -8.4308  -8.3947  -8.3487  -8.3431
    -8.3408  -8.3311  -3.9886  -3.9884  -0.3857  -0.3600   3.2842   3.3647
     3.4219   3.4679   8.2601   8.2766   8.4477   8.4901  14.3463  14.3545
    15.1126  15.1641

          k = 0.4625-0.1371 0.4695 (  1911 PWs)   bands (ev):

    -8.8670  -8.8421  -8.8068  -8.8021  -8.4339  -8.3913  -8.3492  -8.3437
    -8.3415  -8.3312  -3.9973  -3.9971  -0.3531  -0.3225   3.1858   3.2692
     3.3722   3.4201   8.5038   8.5240   8.7016   8.7482  13.8358  13.8389
    14.8623  14.9083

          k = 0.4562-0.1119 0.4797 (  1909 PWs)   bands (ev):

    -8.8682  -8.8403  -8.8068  -8.8017  -8.4368  -8.3879  -8.3497  -8.3457
    -8.3408  -8.3315  -4.0063  -4.0061  -0.3201  -0.2848   3.0834   3.1669
     3.3357   3.3831   8.7782   8.8038   8.9812   9.0309  13.3097  13.3202
    14.5984  14.6379

          k = 0.4500-0.0866 0.4899 (  1911 PWs)   bands (ev):

    -8.8692  -8.8387  -8.8068  -8.8013  -8.4393  -8.3847  -8.3507  -8.3476
    -8.3399  -8.3319  -4.0151  -4.0150  -0.2889  -0.2492   2.9809   3.0634
     3.3154   3.3613   9.0766   9.1107   9.2812   9.3319  12.7864  12.8052
    14.3259  14.3584

          k = 0.4437-0.0613 0.5001 (  1909 PWs)   bands (ev):

    -8.8700  -8.8375  -8.8068  -8.8010  -8.4414  -8.3816  -8.3525  -8.3487
    -8.3390  -8.3323  -4.0233  -4.0232  -0.2616  -0.2181   2.8815   2.9626
     3.3143   3.3581   9.3891   9.4389   9.5970   9.6440  12.2776  12.3067
    14.0498  14.0758

          k = 0.4375-0.0361 0.5103 (  1907 PWs)   bands (ev):

    -8.8706  -8.8365  -8.8068  -8.8008  -8.4431  -8.3786  -8.3549  -8.3493
    -8.3380  -8.3328  -4.0305  -4.0305  -0.2401  -0.1932   2.7881   2.8674
     3.3343   3.3759   9.6948   9.7766   9.9260   9.9591  11.8005  11.8438
    13.7754  13.7970

          k = 0.4312-0.0108 0.5205 (  1908 PWs)   bands (ev):

    -8.8710  -8.8358  -8.8069  -8.8005  -8.4443  -8.3760  -8.3575  -8.3496
    -8.3371  -8.3334  -4.0364  -4.0363  -0.2254  -0.1758   2.7026   2.7800
     3.3762   3.4152   9.9422  10.0731  10.2617  10.2876  11.3977  11.4604
    13.5087  13.5312

          k = 0.4250 0.0144 0.5307 (  1909 PWs)   bands (ev):

    -8.8712  -8.8354  -8.8071  -8.8003  -8.4450  -8.3739  -8.3597  -8.3499
    -8.3363  -8.3339  -4.0406  -4.0405  -0.2180  -0.1665   2.6269   2.7023
     3.4392   3.4754  10.0192  10.1585  10.6192  10.6538  11.1873  11.2613
    13.2599  13.2908

          k = 0.4187 0.0397 0.5409 (  1911 PWs)   bands (ev):

    -8.8712  -8.8352  -8.8073  -8.8000  -8.4452  -8.3728  -8.3610  -8.3501
    -8.3357  -8.3342  -4.0429  -4.0428  -0.2178  -0.1650   2.5622   2.6356
     3.5206   3.5539   9.8451   9.9417  10.9965  11.0307  11.2548  11.3242
    13.0495  13.0944

          k = 0.4125 0.0650 0.5511 (  1911 PWs)   bands (ev):

    -8.8711  -8.8353  -8.8076  -8.7998  -8.4450  -8.3733  -8.3609  -8.3502
    -8.3358  -8.3340  -4.0431  -4.0430  -0.2240  -0.1707   2.5098   2.5811
     3.6163   3.6463   9.5299   9.5936  11.2643  11.3659  11.5264  11.5532
    12.9165  12.9748

          k = 0.4062 0.0902 0.5613 (  1909 PWs)   bands (ev):

    -8.8708  -8.8356  -8.8079  -8.7996  -8.4444  -8.3750  -8.3596  -8.3503
    -8.3363  -8.3334  -4.0412  -4.0411  -0.2354  -0.1822   2.4703   2.5395
     3.7199   3.7464   9.1845   9.2295  11.3549  11.4911  11.9110  11.9527
    12.9157  12.9729

          k = 0.4000 0.1155 0.5715 (  1903 PWs)   bands (ev):

    -8.8705  -8.8360  -8.8082  -8.7994  -8.4435  -8.3772  -8.3578  -8.3504
    -8.3368  -8.3328  -4.0371  -4.0370  -0.2507  -0.1982   2.4445   2.5116
     3.8234   3.8458   8.8557   8.8888  11.3177  11.4429  12.3436  12.3882
    13.0603  13.0983

          k = 0.3937 0.1407 0.5818 (  1903 PWs)   bands (ev):

    -8.8701  -8.8366  -8.8085  -8.7993  -8.4425  -8.3794  -8.3559  -8.3505
    -8.3374  -8.3323  -4.0308  -4.0307  -0.2685  -0.2171   2.4326   2.4977
     3.9162   3.9340   8.5674   8.5916  11.1904  11.2964  12.7871  12.8330
    13.2868  13.3098

          k = 0.3875 0.1660 0.5920 (  1907 PWs)   bands (ev):

    -8.8698  -8.8372  -8.8086  -8.7993  -8.4415  -8.3815  -8.3541  -8.3505
    -8.3379  -8.3319  -4.0225  -4.0224  -0.2875  -0.2375   2.4351   2.4982
     3.9862   3.9987   8.3368   8.3536  11.0149  11.1047  13.2268  13.2744
    13.5175  13.5569

          k = 0.3812 0.1912 0.6022 (  1905 PWs)   bands (ev):

    -8.8695  -8.8378  -8.8087  -8.7993  -8.4406  -8.3831  -8.3524  -8.3505
    -8.3384  -8.3316  -4.0123  -4.0122  -0.3064  -0.2580   2.4518   2.5130
     4.0210   4.0276   8.1784   8.1889  10.8183  10.8960  13.6178  13.6807
    13.7168  13.7979

          k = 0.3750 0.2165 0.6124 (  1906 PWs)   bands (ev):

    -8.8693  -8.8384  -8.8086  -8.7994  -8.4399  -8.3844  -8.3510  -8.3504
    -8.3388  -8.3314  -4.0007  -4.0004  -0.3244  -0.2776   2.4828   2.5424
     4.0098   4.0121   8.1019   8.1087  10.6148  10.6836  13.8222  13.8321
    13.9914  13.9920

          k = 0.3562 0.2057 0.5818 (  1900 PWs)   bands (ev):

    -8.8693  -8.8372  -8.8091  -8.7991  -8.4410  -8.3817  -8.3546  -8.3510
    -8.3377  -8.3319  -4.0482  -4.0481  -0.2651  -0.2143   2.3977   2.4613
     4.1302   4.1320   8.2087   8.2183  11.1961  11.2955  13.5495  13.5882
    13.6336  13.6356

          k = 0.3375 0.1949 0.5511 (  1896 PWs)   bands (ev):

    -8.8687  -8.8363  -8.8097  -8.7993  -8.4411  -8.3793  -8.3582  -8.3515
    -8.3367  -8.3324  -4.1193  -4.1186  -0.1859  -0.1330   2.3720   2.4384
     4.2630   4.2643   8.3208   8.3337  11.6372  11.7801  13.2106  13.2248
    13.4117  13.5371

          k = 0.3187 0.1840 0.5205 (  1897 PWs)   bands (ev):

    -8.8675  -8.8356  -8.8103  -8.8000  -8.4403  -8.3774  -8.3617  -8.3520
    -8.3360  -8.3329  -4.2153  -4.2138  -0.0803  -0.0272   2.4044   2.4722
     4.4063   4.4073   8.4329   8.4498  11.8260  11.9928  12.8540  12.8637
    13.0891  13.2182

          k = 0.3000 0.1732 0.4899 (  1915 PWs)   bands (ev):

    -8.8657  -8.8351  -8.8109  -8.8012  -8.4386  -8.3759  -8.3649  -8.3526
    -8.3356  -8.3335  -4.3353  -4.3330   0.0570   0.1089   2.4905   2.5585
     4.5580   4.5586   8.5379   8.5598  11.8091  11.9679  12.5110  12.5189
    12.7039  12.8219

          k = 0.2812 0.1624 0.4593 (  1915 PWs)   bands (ev):

    -8.8634  -8.8347  -8.8116  -8.8027  -8.4361  -8.3751  -8.3674  -8.3530
    -8.3356  -8.3341  -4.4762  -4.4732   0.2297   0.2793   2.6243   2.6918
     4.7156   4.7160   8.6270   8.6550  11.7132  11.8587  12.1858  12.1929
    12.3273  12.4430

          k = 0.2625 0.1516 0.4287 (  1919 PWs)   bands (ev):

    -8.8606  -8.8342  -8.8122  -8.8046  -8.4330  -8.3758  -8.3683  -8.3535
    -8.3360  -8.3347  -4.6332  -4.6297   0.4392   0.4860   2.7996   2.8660
     4.8763   4.8766   8.6906   8.7259  11.6065  11.7438  11.8807  11.8872
    11.9762  12.0961

          k = 0.2437 0.1407 0.3980 (  1919 PWs)   bands (ev):

    -8.8573  -8.8338  -8.8129  -8.8068  -8.4293  -8.3779  -8.3676  -8.3538
    -8.3368  -8.3354  -4.8011  -4.7972   0.6854   0.7290   3.0103   3.0756
     5.0372   5.0374   8.7203   8.7635  11.4914  11.5745  11.6034  11.6068
    11.7253  11.8122

          k = 0.2250 0.1299 0.3674 (  1913 PWs)   bands (ev):

    -8.8537  -8.8332  -8.8137  -8.8090  -8.4253  -8.3804  -8.3663  -8.3540
    -8.3378  -8.3361  -4.9742  -4.9703   0.9670   1.0075   3.2511   3.3151
     5.1949   5.1952   8.7111   8.7621  11.2898  11.2987  11.3403  11.3419
    11.6712  11.6713

          k = 0.2062 0.1191 0.3368 (  1919 PWs)   bands (ev):

    -8.8498  -8.8326  -8.8144  -8.8113  -8.4211  -8.3829  -8.3648  -8.3541
    -8.3391  -8.3369  -5.1478  -5.1440   1.2821   1.3195   3.5168   3.5795
     5.3464   5.3467   8.6639   8.7215  11.0094  11.0494  11.0969  11.0980
    11.6509  11.6735

          k = 0.1875 0.1083 0.3062 (  1919 PWs)   bands (ev):

    -8.8458  -8.8319  -8.8152  -8.8136  -8.4167  -8.3852  -8.3631  -8.3541
    -8.3406  -8.3378  -5.3174  -5.3139   1.6287   1.6630   3.8022   3.8638
     5.4885   5.4891   8.5839   8.6462  10.7523  10.8023  10.8766  10.8768
    11.6674  11.6926

          k = 0.1687 0.0974 0.2756 (  1915 PWs)   bands (ev):

    -8.8418  -8.8310  -8.8160  -8.8157  -8.4123  -8.3873  -8.3612  -8.3539
    -8.3421  -8.3387  -5.4794  -5.4764   2.0043   2.0359   4.1020   4.1626
     5.6187   5.6198   8.4782   8.5428  10.5227  10.5758  10.6777  10.6790
    11.6697  11.6929

          k = 0.1500 0.0866 0.2449 (  1915 PWs)   bands (ev):

    -8.8379  -8.8301  -8.8176  -8.8168  -8.4082  -8.3892  -8.3594  -8.3535
    -8.3437  -8.3398  -5.6309  -5.6284   2.4068   2.4357   4.4102   4.4698
     5.7350   5.7367   8.3525   8.4172  10.3229  10.3758  10.5008  10.5030
    11.6126  11.6326

          k = 0.1312 0.0758 0.2143 (  1923 PWs)   bands (ev):

    -8.8343  -8.8291  -8.8193  -8.8177  -8.4043  -8.3906  -8.3574  -8.3530
    -8.3451  -8.3410  -5.7694  -5.7675   2.8336   2.8600   4.7195   4.7780
     5.8362   5.8388   8.2098   8.2720  10.1544  10.2053  10.3455  10.3487
    11.4614  11.4784

          k = 0.1125 0.0650 0.1837 (  1925 PWs)   bands (ev):

    -8.8310  -8.8281  -8.8207  -8.8185  -8.4009  -8.3917  -8.3555  -8.3522
    -8.3463  -8.3421  -5.8930  -5.8916   3.2822   3.3061   5.0214   5.0783
     5.9223   5.9260   8.0488   8.1059  10.0187  10.0660  10.2118  10.2161
    11.2119  11.2265

          k = 0.0937 0.0541 0.1531 (  1921 PWs)   bands (ev):

    -8.8282  -8.8270  -8.8217  -8.8193  -8.3981  -8.3925  -8.3537  -8.3514
    -8.3473  -8.3433  -6.0000  -5.9992   3.7492   3.7707   5.3053   5.3598
     5.9944   5.9994   7.8633   7.9125   9.9161   9.9582  10.1002  10.1054
    10.8957  10.9091

          k = 0.0750 0.0433 0.1225 (  1915 PWs)   bands (ev):

    -8.8260  -8.8259  -8.8225  -8.8202  -8.3958  -8.3929  -8.3520  -8.3504
    -8.3481  -8.3445  -6.0893  -6.0888   4.2307   4.2496   5.5585   5.6089
     6.0553   6.0615   7.6424   7.6812   9.8447   9.8796  10.0118  10.0174
    10.5642  10.5770

          k = 0.0562 0.0325 0.0919 (  1911 PWs)   bands (ev):

    -8.8249  -8.8244  -8.8230  -8.8210  -8.3943  -8.3930  -8.3505  -8.3494
    -8.3485  -8.3456  -6.1598  -6.1596   4.7212   4.7372   5.7662   5.8092
     6.1101   6.1164   7.3728   7.3997   9.7977   9.8226   9.9491   9.9538
    10.2689  10.2800

          k = 0.0375 0.0217 0.0612 (  1911 PWs)   bands (ev):

    -8.8240  -8.8234  -8.8231  -8.8217  -8.3933  -8.3929  -8.3493  -8.3487
    -8.3487  -8.3466  -6.2107  -6.2107   5.2112   5.2238   5.9154   5.9455
     6.1655   6.1691   7.0458   7.0610   9.7621   9.7743   9.9139   9.9162
    10.0514  10.0580

          k = 0.0187 0.0108 0.0306 (  1917 PWs)   bands (ev):

    -8.8233  -8.8231  -8.8229  -8.8223  -8.3928  -8.3927  -8.3486  -8.3485
    -8.3482  -8.3475  -6.2415  -6.2415   5.6746   5.6818   6.0169   6.0303
     6.2150   6.2152   6.6644   6.6698   9.7269   9.7289   9.9009   9.9012
     9.9327   9.9339

          k = 0.0000 0.0000 0.0000 (  1917 PWs)   bands (ev):

    -8.8229  -8.8229  -8.8229  -8.8229  -8.3926  -8.3926  -8.3481  -8.3481
    -8.3481  -8.3481  -6.2518  -6.2518   5.9063   5.9063   6.2350   6.2350
     6.2350   6.2350   6.2798   6.2798   9.7081   9.7081   9.8984   9.8984
     9.8984   9.8984

     Writing all to output data dir ./outputs/gaas.save/

     init_run     :      1.19s CPU      1.61s WALL (       1 calls)
     electrons    :     89.47s CPU     89.71s WALL (       1 calls)

     Called by init_run:
     wfcinit      :      0.00s CPU      0.00s WALL (       1 calls)
     wfcinit:atom :      0.04s CPU      0.06s WALL (      81 calls)
     wfcinit:wfcr :      3.22s CPU    -28.66s WALL (      81 calls)
     potinit      :      0.18s CPU      0.27s WALL (       1 calls)
     hinit0       :      0.85s CPU      1.14s WALL (       1 calls)

     Called by electrons:
     c_bands      :     89.46s CPU     89.63s WALL (       1 calls)
     v_of_rho     :      0.02s CPU      0.04s WALL (       1 calls)
     v_h          :      0.00s CPU      0.00s WALL (       1 calls)
     v_xc         :      0.02s CPU      0.04s WALL (       1 calls)
     newd         :      0.13s CPU      0.15s WALL (       1 calls)
     PAW_pot      :      0.15s CPU      0.22s WALL (       1 calls)

     Called by c_bands:
     init_us_2    :      0.04s CPU      0.07s WALL (      81 calls)
     init_us_2:cp :      0.04s CPU      0.07s WALL (      81 calls)
     cegterg      :     85.59s CPU    117.05s WALL (     150 calls)

     Called by sum_band:

     Called by *egterg:
     cdiaghg      :      3.59s CPU      4.28s WALL (    2274 calls)
     cegterg:over :      8.60s CPU     10.46s WALL (    2193 calls)
     cegterg:upda :      6.11s CPU      7.31s WALL (    2193 calls)
     cegterg:last :      5.52s CPU      6.62s WALL (     624 calls)
     h_psi        :     59.31s CPU     52.73s WALL (    2424 calls)
     s_psi        :      3.08s CPU      3.71s WALL (    2424 calls)
     g_psi        :      1.00s CPU      1.17s WALL (    2193 calls)

     Called by h_psi:
     h_psi:calbec :      3.10s CPU      3.84s WALL (    2424 calls)
     vloc_psi     :     52.92s CPU     44.96s WALL (    2424 calls)
     add_vuspsi   :      3.08s CPU      3.68s WALL (    2424 calls)

     General routines
     calbec       :      3.09s CPU      3.84s WALL (    2424 calls)
     fft          :      0.32s CPU      0.41s WALL (      15 calls)
     fftw         :     44.17s CPU     34.48s WALL (  186896 calls)
     davcio       :      0.07s CPU      0.10s WALL (     162 calls)

     Parallel routines

     PAW routines
     PAW_pot      :      0.15s CPU      0.22s WALL (       1 calls)

     PWSCF        :   1m31.51s CPU   1m32.57s WALL


   This run was terminated on:   6:47:31  18Dec2024            

=------------------------------------------------------------------------------=
   JOB DONE.
=------------------------------------------------------------------------------=
