
     Program PWSCF v.7.0 starts on  3Jan2025 at  6:15: 5 

     This program is part of the open-source Quantum ESPRESSO suite
     for quantum simulation of materials; please cite
         "P. Giannozzi et al., J. Phys.:Condens. Matter 21 395502 (2009);
         "P. Giannozzi et al., J. Phys.:Condens. Matter 29 465901 (2017);
         "P. Giannozzi et al., J. Chem. Phys. 152 154105 (2020);
          URL http://www.quantum-espresso.org", 
     in publications or presentations arising from this work. More details at
     http://www.quantum-espresso.org/quote

     Parallel version (MPI & OpenMP), running on       2 processor cores
     Number of MPI processes:                 2
     Threads/MPI process:                     1

     MPI processes distributed on     1 nodes
     R & G space division:  proc/nbgrp/npool/nimage =       2
     263 MiB available memory on the printing compute node when the environment starts

     Reading input from pw.bands.wo_soc.in

     Current dimensions of program PWSCF are:
     Max number of different atomic species (ntypx) = 10
     Max number of k-points (npk) =  40000
     Max angular momentum in pseudopotentials (lmaxx) =  4
     Message from routine volume:
     axis vectors are left-handed

     Atomic positions and unit cell read from directory:
     ./outputs/gaas.save/

     Message from routine volume:
     axis vectors are left-handed
     file Ga.pbe-dn-kjpaw_psl.1.0.0.UPF: wavefunction(s)  4S renormalized

     IMPORTANT: XC functional enforced from input :
     Exchange-correlation= PBE
                           (   1   4   3   4   0   0   0)
     Any further DFT definition will be discarded
     Please, verify this is what you really want

     Message from routine setup:
     using ibrav=0 with symmetry is DISCOURAGED, use correct ibrav instead

     Subspace diagonalization in iterative solution of the eigenvalue problem:
     a serial algorithm will be used


     Parallelization info
     --------------------
     sticks:   dense  smooth     PW     G-vecs:    dense   smooth      PW
     Min         384     384    120                 7179     7179    1198
     Max         385     385    121                 7182     7182    1199
     Sum         769     769    241                14361    14361    2397

     Using Slab Decomposition



     bravais-lattice index     =            0
     lattice parameter (alat)  =      10.6839  a.u.
     unit-cell volume          =     304.8842 (a.u.)^3
     number of atoms/cell      =            2
     number of atomic types    =            2
     number of electrons       =        18.00
     number of Kohn-Sham states=           13
     kinetic-energy cutoff     =      50.0000  Ry
     charge density cutoff     =     200.0000  Ry
     Exchange-correlation= PBE
                           (   1   4   3   4   0   0   0)

     celldm(1)=  10.683945  celldm(2)=   0.000000  celldm(3)=   0.000000
     celldm(4)=   0.000000  celldm(5)=   0.000000  celldm(6)=   0.000000

     crystal axes: (cart. coord. in units of alat)
               a(1) = (   0.500000   0.500000   0.000000 )  
               a(2) = (   0.500000   0.000000   0.500000 )  
               a(3) = (   0.000000   0.500000   0.500000 )  

     reciprocal axes: (cart. coord. in units 2 pi/alat)
               b(1) = (  1.000000  1.000000 -1.000000 )  
               b(2) = (  1.000000 -1.000000  1.000000 )  
               b(3) = ( -1.000000  1.000000  1.000000 )  


     PseudoPot. # 1 for As read from file:
     ../Pseudopotentials/As.pbe-n-kjpaw_psl.1.0.0.UPF
     MD5 check sum: 21b474db91924651be503153fb2dbf55
     Pseudo is Projector augmented-wave + core cor, Zval =  5.0
     Generated using &quot;atomic&quot; code by A. Dal Corso  v.6.3
     Shape of augmentation charge: PSQ
     Using radial grid of 1209 points,  4 beta functions with: 
                l(1) =   0
                l(2) =   0
                l(3) =   1
                l(4) =   1
     Q(r) pseudized with 0 coefficients 


     PseudoPot. # 2 for Ga read from file:
     ../Pseudopotentials/Ga.pbe-dn-kjpaw_psl.1.0.0.UPF
     MD5 check sum: 50ce49cbf7e0a40ad8623bf41840a268
     Pseudo is Projector augmented-wave + core cor, Zval = 13.0
     Generated using &quot;atomic&quot; code by A. Dal Corso  v.6.3
     Shape of augmentation charge: PSQ
     Using radial grid of 1205 points,  6 beta functions with: 
                l(1) =   0
                l(2) =   0
                l(3) =   1
                l(4) =   1
                l(5) =   2
                l(6) =   2
     Q(r) pseudized with 0 coefficients 


     atomic species   valence    mass     pseudopotential
        As             5.00    74.92100     As( 1.00)
        Ga            13.00    69.72300     Ga( 1.00)

     Starting magnetic structure 
     atomic species   magnetization
        As           1.000
        Ga           1.000

     24 Sym. Ops. (no inversion) found


                                    s                        frac. trans.

      isym =  1     identity                                     

 cryst.   s( 1) = (     1          0          0      )
                  (     0          1          0      )
                  (     0          0          1      )

 cart.    s( 1) = (  1.0000000  0.0000000  0.0000000 )
                  (  0.0000000  1.0000000  0.0000000 )
                  (  0.0000000  0.0000000  1.0000000 )


      isym =  2     180 deg rotation - cart. axis [0,0,1]        

 cryst.   s( 2) = (    -1          0          0      )
                  (    -1          0          1      )
                  (    -1          1          0      )

 cart.    s( 2) = ( -1.0000000  0.0000000  0.0000000 )
                  (  0.0000000 -1.0000000  0.0000000 )
                  (  0.0000000  0.0000000  1.0000000 )


      isym =  3     180 deg rotation - cart. axis [0,1,0]        

 cryst.   s( 3) = (     0         -1          1      )
                  (     0         -1          0      )
                  (     1         -1          0      )

 cart.    s( 3) = ( -1.0000000  0.0000000  0.0000000 )
                  (  0.0000000  1.0000000  0.0000000 )
                  (  0.0000000  0.0000000 -1.0000000 )


      isym =  4     180 deg rotation - cart. axis [1,0,0]        

 cryst.   s( 4) = (     0          1         -1      )
                  (     1          0         -1      )
                  (     0          0         -1      )

 cart.    s( 4) = (  1.0000000  0.0000000  0.0000000 )
                  (  0.0000000 -1.0000000  0.0000000 )
                  (  0.0000000  0.0000000 -1.0000000 )


      isym =  5     120 deg rotation - cart. axis [-1,-1,-1]     

 cryst.   s( 5) = (     0          1          0      )
                  (     0          0          1      )
                  (     1          0          0      )

 cart.    s( 5) = (  0.0000000  1.0000000  0.0000000 )
                  (  0.0000000  0.0000000  1.0000000 )
                  (  1.0000000  0.0000000  0.0000000 )


      isym =  6     120 deg rotation - cart. axis [-1,1,1]       

 cryst.   s( 6) = (     0         -1          0      )
                  (     1         -1          0      )
                  (     0         -1          1      )

 cart.    s( 6) = (  0.0000000 -1.0000000  0.0000000 )
                  (  0.0000000  0.0000000  1.0000000 )
                  ( -1.0000000  0.0000000  0.0000000 )


      isym =  7     120 deg rotation - cart. axis [1,1,-1]       

 cryst.   s( 7) = (     1          0         -1      )
                  (     0          0         -1      )
                  (     0          1         -1      )

 cart.    s( 7) = (  0.0000000  1.0000000  0.0000000 )
                  (  0.0000000  0.0000000 -1.0000000 )
                  ( -1.0000000  0.0000000  0.0000000 )


      isym =  8     120 deg rotation - cart. axis [1,-1,1]       

 cryst.   s( 8) = (    -1          0          1      )
                  (    -1          1          0      )
                  (    -1          0          0      )

 cart.    s( 8) = (  0.0000000 -1.0000000  0.0000000 )
                  (  0.0000000  0.0000000 -1.0000000 )
                  (  1.0000000  0.0000000  0.0000000 )


      isym =  9     120 deg rotation - cart. axis [1,1,1]        

 cryst.   s( 9) = (     0          0          1      )
                  (     1          0          0      )
                  (     0          1          0      )

 cart.    s( 9) = (  0.0000000  0.0000000  1.0000000 )
                  (  1.0000000  0.0000000  0.0000000 )
                  (  0.0000000  1.0000000  0.0000000 )


      isym = 10     120 deg rotation - cart. axis [-1,1,-1]      

 cryst.   s(10) = (     0          0         -1      )
                  (     0          1         -1      )
                  (     1          0         -1      )

 cart.    s(10) = (  0.0000000  0.0000000  1.0000000 )
                  ( -1.0000000  0.0000000  0.0000000 )
                  (  0.0000000 -1.0000000  0.0000000 )


      isym = 11     120 deg rotation - cart. axis [1,-1,-1]      

 cryst.   s(11) = (    -1          1          0      )
                  (    -1          0          0      )
                  (    -1          0          1      )

 cart.    s(11) = (  0.0000000  0.0000000 -1.0000000 )
                  ( -1.0000000  0.0000000  0.0000000 )
                  (  0.0000000  1.0000000  0.0000000 )


      isym = 12     120 deg rotation - cart. axis [-1,-1,1]      

 cryst.   s(12) = (     1         -1          0      )
                  (     0         -1          1      )
                  (     0         -1          0      )

 cart.    s(12) = (  0.0000000  0.0000000 -1.0000000 )
                  (  1.0000000  0.0000000  0.0000000 )
                  (  0.0000000 -1.0000000  0.0000000 )


      isym = 13     inv. 180 deg rotation - cart. axis [1,1,0]   

 cryst.   s(13) = (    -1          0          0      )
                  (    -1          1          0      )
                  (    -1          0          1      )

 cart.    s(13) = (  0.0000000 -1.0000000  0.0000000 )
                  ( -1.0000000  0.0000000  0.0000000 )
                  (  0.0000000  0.0000000  1.0000000 )


      isym = 14     inv. 180 deg rotation - cart. axis [1,-1,0]  

 cryst.   s(14) = (     1          0          0      )
                  (     0          0          1      )
                  (     0          1          0      )

 cart.    s(14) = (  0.0000000  1.0000000  0.0000000 )
                  (  1.0000000  0.0000000  0.0000000 )
                  (  0.0000000  0.0000000  1.0000000 )


      isym = 15     inv.  90 deg rotation - cart. axis [0,0,-1]  

 cryst.   s(15) = (     0         -1          1      )
                  (     1         -1          0      )
                  (     0         -1          0      )

 cart.    s(15) = (  0.0000000 -1.0000000  0.0000000 )
                  (  1.0000000  0.0000000  0.0000000 )
                  (  0.0000000  0.0000000 -1.0000000 )


      isym = 16     inv.  90 deg rotation - cart. axis [0,0,1]   

 cryst.   s(16) = (     0          1         -1      )
                  (     0          0         -1      )
                  (     1          0         -1      )

 cart.    s(16) = (  0.0000000  1.0000000  0.0000000 )
                  ( -1.0000000  0.0000000  0.0000000 )
                  (  0.0000000  0.0000000 -1.0000000 )


      isym = 17     inv. 180 deg rotation - cart. axis [1,0,1]   

 cryst.   s(17) = (     1         -1          0      )
                  (     0         -1          0      )
                  (     0         -1          1      )

 cart.    s(17) = (  0.0000000  0.0000000 -1.0000000 )
                  (  0.0000000  1.0000000  0.0000000 )
                  ( -1.0000000  0.0000000  0.0000000 )


      isym = 18     inv. 180 deg rotation - cart. axis [-1,0,1]  

 cryst.   s(18) = (     0          0          1      )
                  (     0          1          0      )
                  (     1          0          0      )

 cart.    s(18) = (  0.0000000  0.0000000  1.0000000 )
                  (  0.0000000  1.0000000  0.0000000 )
                  (  1.0000000  0.0000000  0.0000000 )


      isym = 19     inv.  90 deg rotation - cart. axis [0,1,0]   

 cryst.   s(19) = (    -1          1          0      )
                  (    -1          0          1      )
                  (    -1          0          0      )

 cart.    s(19) = (  0.0000000  0.0000000 -1.0000000 )
                  (  0.0000000 -1.0000000  0.0000000 )
                  (  1.0000000  0.0000000  0.0000000 )


      isym = 20     inv.  90 deg rotation - cart. axis [0,-1,0]  

 cryst.   s(20) = (     0          0         -1      )
                  (     1          0         -1      )
                  (     0          1         -1      )

 cart.    s(20) = (  0.0000000  0.0000000  1.0000000 )
                  (  0.0000000 -1.0000000  0.0000000 )
                  ( -1.0000000  0.0000000  0.0000000 )


      isym = 21     inv. 180 deg rotation - cart. axis [0,1,1]   

 cryst.   s(21) = (     1          0         -1      )
                  (     0          1         -1      )
                  (     0          0         -1      )

 cart.    s(21) = (  1.0000000  0.0000000  0.0000000 )
                  (  0.0000000  0.0000000 -1.0000000 )
                  (  0.0000000 -1.0000000  0.0000000 )


      isym = 22     inv. 180 deg rotation - cart. axis [0,1,-1]  

 cryst.   s(22) = (     0          1          0      )
                  (     1          0          0      )
                  (     0          0          1      )

 cart.    s(22) = (  1.0000000  0.0000000  0.0000000 )
                  (  0.0000000  0.0000000  1.0000000 )
                  (  0.0000000  1.0000000  0.0000000 )


      isym = 23     inv.  90 deg rotation - cart. axis [-1,0,0]  

 cryst.   s(23) = (    -1          0          1      )
                  (    -1          0          0      )
                  (    -1          1          0      )

 cart.    s(23) = ( -1.0000000  0.0000000  0.0000000 )
                  (  0.0000000  0.0000000 -1.0000000 )
                  (  0.0000000  1.0000000  0.0000000 )


      isym = 24     inv.  90 deg rotation - cart. axis [1,0,0]   

 cryst.   s(24) = (     0         -1          0      )
                  (     0         -1          1      )
                  (     1         -1          0      )

 cart.    s(24) = ( -1.0000000  0.0000000  0.0000000 )
                  (  0.0000000  0.0000000  1.0000000 )
                  (  0.0000000 -1.0000000  0.0000000 )


   Cartesian axes

     site n.     atom                  positions (alat units)
         1           As  tau(   1) = (   0.2500000   0.2500000   0.2500000  )
         2           Ga  tau(   2) = (   0.0000000   0.0000000   0.0000000  )

   Crystallographic axes

     site n.     atom                  positions (cryst. coord.)
         1           As  tau(   1) = (  0.2500000  0.2500000  0.2500000  )
         2           Ga  tau(   2) = (  0.0000000  0.0000000  0.0000000  )

     number of k points=    81  Marzari-Vanderbilt smearing, width (Ry)=  0.0050
                       cart. coord. in units 2pi/alat
        k(    1) = (   0.5000000   0.5000000   0.5000000), wk =   0.0123457
        k(    2) = (   0.4750000   0.4750000   0.4750000), wk =   0.0123457
        k(    3) = (   0.4500000   0.4500000   0.4500000), wk =   0.0123457
        k(    4) = (   0.4250000   0.4250000   0.4250000), wk =   0.0123457
        k(    5) = (   0.4000000   0.4000000   0.4000000), wk =   0.0123457
        k(    6) = (   0.3750000   0.3750000   0.3750000), wk =   0.0123457
        k(    7) = (   0.3500000   0.3500000   0.3500000), wk =   0.0123457
        k(    8) = (   0.3250000   0.3250000   0.3250000), wk =   0.0123457
        k(    9) = (   0.3000000   0.3000000   0.3000000), wk =   0.0123457
        k(   10) = (   0.2750000   0.2750000   0.2750000), wk =   0.0123457
        k(   11) = (   0.2500000   0.2500000   0.2500000), wk =   0.0123457
        k(   12) = (   0.2250000   0.2250000   0.2250000), wk =   0.0123457
        k(   13) = (   0.2000000   0.2000000   0.2000000), wk =   0.0123457
        k(   14) = (   0.1750000   0.1750000   0.1750000), wk =   0.0123457
        k(   15) = (   0.1500000   0.1500000   0.1500000), wk =   0.0123457
        k(   16) = (   0.1250000   0.1250000   0.1250000), wk =   0.0123457
        k(   17) = (   0.1000000   0.1000000   0.1000000), wk =   0.0123457
        k(   18) = (   0.0750000   0.0750000   0.0750000), wk =   0.0123457
        k(   19) = (   0.0500000   0.0500000   0.0500000), wk =   0.0123457
        k(   20) = (   0.0250000   0.0250000   0.0250000), wk =   0.0123457
        k(   21) = (   0.0000000   0.0000000   0.0000000), wk =   0.0123457
        k(   22) = (   0.0000000   0.0500000   0.0000000), wk =   0.0123457
        k(   23) = (   0.0000000   0.1000000   0.0000000), wk =   0.0123457
        k(   24) = (   0.0000000   0.1500000   0.0000000), wk =   0.0123457
        k(   25) = (   0.0000000   0.2000000   0.0000000), wk =   0.0123457
        k(   26) = (   0.0000000   0.2500000   0.0000000), wk =   0.0123457
        k(   27) = (   0.0000000   0.3000000   0.0000000), wk =   0.0123457
        k(   28) = (   0.0000000   0.3500000   0.0000000), wk =   0.0123457
        k(   29) = (   0.0000000   0.4000000   0.0000000), wk =   0.0123457
        k(   30) = (   0.0000000   0.4500000   0.0000000), wk =   0.0123457
        k(   31) = (   0.0000000   0.5000000   0.0000000), wk =   0.0123457
        k(   32) = (   0.0000000   0.5500000   0.0000000), wk =   0.0123457
        k(   33) = (   0.0000000   0.6000000   0.0000000), wk =   0.0123457
        k(   34) = (   0.0000000   0.6500000   0.0000000), wk =   0.0123457
        k(   35) = (   0.0000000   0.7000000   0.0000000), wk =   0.0123457
        k(   36) = (   0.0000000   0.7500000   0.0000000), wk =   0.0123457
        k(   37) = (   0.0000000   0.8000000   0.0000000), wk =   0.0123457
        k(   38) = (   0.0000000   0.8500000   0.0000000), wk =   0.0123457
        k(   39) = (   0.0000000   0.9000000   0.0000000), wk =   0.0123457
        k(   40) = (   0.0000000   0.9500000   0.0000000), wk =   0.0123457
        k(   41) = (   0.0000000   1.0000000   0.0000000), wk =   0.0123457
        k(   42) = (   0.0000000   0.9875000   0.0375000), wk =   0.0123457
        k(   43) = (   0.0000000   0.9750000   0.0750000), wk =   0.0123457
        k(   44) = (   0.0000000   0.9625000   0.1125000), wk =   0.0123457
        k(   45) = (   0.0000000   0.9500000   0.1500000), wk =   0.0123457
        k(   46) = (   0.0000000   0.9375000   0.1875000), wk =   0.0123457
        k(   47) = (   0.0000000   0.9250000   0.2250000), wk =   0.0123457
        k(   48) = (   0.0000000   0.9125000   0.2625000), wk =   0.0123457
        k(   49) = (   0.0000000   0.9000000   0.3000000), wk =   0.0123457
        k(   50) = (   0.0000000   0.8875000   0.3375000), wk =   0.0123457
        k(   51) = (   0.0000000   0.8750000   0.3750000), wk =   0.0123457
        k(   52) = (   0.0000000   0.8625000   0.4125000), wk =   0.0123457
        k(   53) = (   0.0000000   0.8500000   0.4500000), wk =   0.0123457
        k(   54) = (   0.0000000   0.8375000   0.4875000), wk =   0.0123457
        k(   55) = (   0.0000000   0.8250000   0.5250000), wk =   0.0123457
        k(   56) = (   0.0000000   0.8125000   0.5625000), wk =   0.0123457
        k(   57) = (   0.0000000   0.8000000   0.6000000), wk =   0.0123457
        k(   58) = (   0.0000000   0.7875000   0.6375000), wk =   0.0123457
        k(   59) = (   0.0000000   0.7750000   0.6750000), wk =   0.0123457
        k(   60) = (   0.0000000   0.7625000   0.7125000), wk =   0.0123457
        k(   61) = (   0.0000000   0.7500000   0.7500000), wk =   0.0123457
        k(   62) = (   0.0000000   0.7125000   0.7125000), wk =   0.0123457
        k(   63) = (   0.0000000   0.6750000   0.6750000), wk =   0.0123457
        k(   64) = (   0.0000000   0.6375000   0.6375000), wk =   0.0123457
        k(   65) = (   0.0000000   0.6000000   0.6000000), wk =   0.0123457
        k(   66) = (   0.0000000   0.5625000   0.5625000), wk =   0.0123457
        k(   67) = (   0.0000000   0.5250000   0.5250000), wk =   0.0123457
        k(   68) = (   0.0000000   0.4875000   0.4875000), wk =   0.0123457
        k(   69) = (   0.0000000   0.4500000   0.4500000), wk =   0.0123457
        k(   70) = (   0.0000000   0.4125000   0.4125000), wk =   0.0123457
        k(   71) = (   0.0000000   0.3750000   0.3750000), wk =   0.0123457
        k(   72) = (   0.0000000   0.3375000   0.3375000), wk =   0.0123457
        k(   73) = (   0.0000000   0.3000000   0.3000000), wk =   0.0123457
        k(   74) = (   0.0000000   0.2625000   0.2625000), wk =   0.0123457
        k(   75) = (   0.0000000   0.2250000   0.2250000), wk =   0.0123457
        k(   76) = (   0.0000000   0.1875000   0.1875000), wk =   0.0123457
        k(   77) = (   0.0000000   0.1500000   0.1500000), wk =   0.0123457
        k(   78) = (   0.0000000   0.1125000   0.1125000), wk =   0.0123457
        k(   79) = (   0.0000000   0.0750000   0.0750000), wk =   0.0123457
        k(   80) = (   0.0000000   0.0375000   0.0375000), wk =   0.0123457
        k(   81) = (   0.0000000   0.0000000   0.0000000), wk =   0.0123457

                       cryst. coord.
        k(    1) = (   0.5000000   0.5000000   0.5000000), wk =   0.0123457
        k(    2) = (   0.4750000   0.4750000   0.4750000), wk =   0.0123457
        k(    3) = (   0.4500000   0.4500000   0.4500000), wk =   0.0123457
        k(    4) = (   0.4250000   0.4250000   0.4250000), wk =   0.0123457
        k(    5) = (   0.4000000   0.4000000   0.4000000), wk =   0.0123457
        k(    6) = (   0.3750000   0.3750000   0.3750000), wk =   0.0123457
        k(    7) = (   0.3500000   0.3500000   0.3500000), wk =   0.0123457
        k(    8) = (   0.3250000   0.3250000   0.3250000), wk =   0.0123457
        k(    9) = (   0.3000000   0.3000000   0.3000000), wk =   0.0123457
        k(   10) = (   0.2750000   0.2750000   0.2750000), wk =   0.0123457
        k(   11) = (   0.2500000   0.2500000   0.2500000), wk =   0.0123457
        k(   12) = (   0.2250000   0.2250000   0.2250000), wk =   0.0123457
        k(   13) = (   0.2000000   0.2000000   0.2000000), wk =   0.0123457
        k(   14) = (   0.1750000   0.1750000   0.1750000), wk =   0.0123457
        k(   15) = (   0.1500000   0.1500000   0.1500000), wk =   0.0123457
        k(   16) = (   0.1250000   0.1250000   0.1250000), wk =   0.0123457
        k(   17) = (   0.1000000   0.1000000   0.1000000), wk =   0.0123457
        k(   18) = (   0.0750000   0.0750000   0.0750000), wk =   0.0123457
        k(   19) = (   0.0500000   0.0500000   0.0500000), wk =   0.0123457
        k(   20) = (   0.0250000   0.0250000   0.0250000), wk =   0.0123457
        k(   21) = (   0.0000000   0.0000000   0.0000000), wk =   0.0123457
        k(   22) = (   0.0250000   0.0000000   0.0250000), wk =   0.0123457
        k(   23) = (   0.0500000   0.0000000   0.0500000), wk =   0.0123457
        k(   24) = (   0.0750000   0.0000000   0.0750000), wk =   0.0123457
        k(   25) = (   0.1000000   0.0000000   0.1000000), wk =   0.0123457
        k(   26) = (   0.1250000   0.0000000   0.1250000), wk =   0.0123457
        k(   27) = (   0.1500000   0.0000000   0.1500000), wk =   0.0123457
        k(   28) = (   0.1750000   0.0000000   0.1750000), wk =   0.0123457
        k(   29) = (   0.2000000   0.0000000   0.2000000), wk =   0.0123457
        k(   30) = (   0.2250000   0.0000000   0.2250000), wk =   0.0123457
        k(   31) = (   0.2500000   0.0000000   0.2500000), wk =   0.0123457
        k(   32) = (   0.2750000   0.0000000   0.2750000), wk =   0.0123457
        k(   33) = (   0.3000000   0.0000000   0.3000000), wk =   0.0123457
        k(   34) = (   0.3250000   0.0000000   0.3250000), wk =   0.0123457
        k(   35) = (   0.3500000   0.0000000   0.3500000), wk =   0.0123457
        k(   36) = (   0.3750000   0.0000000   0.3750000), wk =   0.0123457
        k(   37) = (   0.4000000   0.0000000   0.4000000), wk =   0.0123457
        k(   38) = (   0.4250000   0.0000000   0.4250000), wk =   0.0123457
        k(   39) = (   0.4500000   0.0000000   0.4500000), wk =   0.0123457
        k(   40) = (   0.4750000   0.0000000   0.4750000), wk =   0.0123457
        k(   41) = (   0.5000000   0.0000000   0.5000000), wk =   0.0123457
        k(   42) = (   0.4937500   0.0187500   0.5125000), wk =   0.0123457
        k(   43) = (   0.4875000   0.0375000   0.5250000), wk =   0.0123457
        k(   44) = (   0.4812500   0.0562500   0.5375000), wk =   0.0123457
        k(   45) = (   0.4750000   0.0750000   0.5500000), wk =   0.0123457
        k(   46) = (   0.4687500   0.0937500   0.5625000), wk =   0.0123457
        k(   47) = (   0.4625000   0.1125000   0.5750000), wk =   0.0123457
        k(   48) = (   0.4562500   0.1312500   0.5875000), wk =   0.0123457
        k(   49) = (   0.4500000   0.1500000   0.6000000), wk =   0.0123457
        k(   50) = (   0.4437500   0.1687500   0.6125000), wk =   0.0123457
        k(   51) = (   0.4375000   0.1875000   0.6250000), wk =   0.0123457
        k(   52) = (   0.4312500   0.2062500   0.6375000), wk =   0.0123457
        k(   53) = (   0.4250000   0.2250000   0.6500000), wk =   0.0123457
        k(   54) = (   0.4187500   0.2437500   0.6625000), wk =   0.0123457
        k(   55) = (   0.4125000   0.2625000   0.6750000), wk =   0.0123457
        k(   56) = (   0.4062500   0.2812500   0.6875000), wk =   0.0123457
        k(   57) = (   0.4000000   0.3000000   0.7000000), wk =   0.0123457
        k(   58) = (   0.3937500   0.3187500   0.7125000), wk =   0.0123457
        k(   59) = (   0.3875000   0.3375000   0.7250000), wk =   0.0123457
        k(   60) = (   0.3812500   0.3562500   0.7375000), wk =   0.0123457
        k(   61) = (   0.3750000   0.3750000   0.7500000), wk =   0.0123457
        k(   62) = (   0.3562500   0.3562500   0.7125000), wk =   0.0123457
        k(   63) = (   0.3375000   0.3375000   0.6750000), wk =   0.0123457
        k(   64) = (   0.3187500   0.3187500   0.6375000), wk =   0.0123457
        k(   65) = (   0.3000000   0.3000000   0.6000000), wk =   0.0123457
        k(   66) = (   0.2812500   0.2812500   0.5625000), wk =   0.0123457
        k(   67) = (   0.2625000   0.2625000   0.5250000), wk =   0.0123457
        k(   68) = (   0.2437500   0.2437500   0.4875000), wk =   0.0123457
        k(   69) = (   0.2250000   0.2250000   0.4500000), wk =   0.0123457
        k(   70) = (   0.2062500   0.2062500   0.4125000), wk =   0.0123457
        k(   71) = (   0.1875000   0.1875000   0.3750000), wk =   0.0123457
        k(   72) = (   0.1687500   0.1687500   0.3375000), wk =   0.0123457
        k(   73) = (   0.1500000   0.1500000   0.3000000), wk =   0.0123457
        k(   74) = (   0.1312500   0.1312500   0.2625000), wk =   0.0123457
        k(   75) = (   0.1125000   0.1125000   0.2250000), wk =   0.0123457
        k(   76) = (   0.0937500   0.0937500   0.1875000), wk =   0.0123457
        k(   77) = (   0.0750000   0.0750000   0.1500000), wk =   0.0123457
        k(   78) = (   0.0562500   0.0562500   0.1125000), wk =   0.0123457
        k(   79) = (   0.0375000   0.0375000   0.0750000), wk =   0.0123457
        k(   80) = (   0.0187500   0.0187500   0.0375000), wk =   0.0123457
        k(   81) = (   0.0000000   0.0000000   0.0000000), wk =   0.0123457

     Dense  grid:    14361 G-vectors     FFT dimensions: (  36,  36,  36)

     Dynamical RAM for                 wfc:       0.18 MB

     Dynamical RAM for     wfc (w. buffer):       0.18 MB

     Dynamical RAM for           str. fact:       0.22 MB

     Dynamical RAM for           local pot:       0.00 MB

     Dynamical RAM for          nlocal pot:       0.36 MB

     Dynamical RAM for                qrad:       2.27 MB

     Dynamical RAM for          rho,v,vnew:       1.73 MB

     Dynamical RAM for           G-vectors:       0.47 MB

     Dynamical RAM for          h,s,v(r/c):       0.12 MB

     Dynamical RAM for          <psi|beta>:       0.01 MB

     Dynamical RAM for                 psi:       0.72 MB

     Dynamical RAM for                hpsi:       0.72 MB

     Dynamical RAM for                spsi:       0.72 MB

     Dynamical RAM for      wfcinit/wfcrot:       0.36 MB

     Dynamical RAM for           addusdens:      20.60 MB

     Estimated static dynamical RAM per process >       6.62 MB

     Estimated max dynamical RAM per process >      27.22 MB

     Estimated total dynamical RAM >      54.45 MB

     Check: negative core charge=   -0.000002
     Generating pointlists ...
     new r_m :   0.1786 (alat units)  1.9083 (a.u.) for type    1
     new r_m :   0.1786 (alat units)  1.9083 (a.u.) for type    2

     The potential is recalculated from file :
     ./outputs/gaas.save/charge-density

     Starting wfcs are   13 randomized atomic wfcs
     Checking if some PAW data can be deallocated... 
       PAW data deallocated on    1 nodes for type:  1
       PAW data deallocated on    1 nodes for type:  2

     Band Structure Calculation
     Davidson diagonalization with overlap

     Computing kpt #:     1  of   162
     total cpu time spent up to now is        1.9 secs

     Computing kpt #:     2  of   162
     total cpu time spent up to now is        2.2 secs

     Computing kpt #:     3  of   162
     total cpu time spent up to now is        2.5 secs

     Computing kpt #:     4  of   162
     total cpu time spent up to now is        2.8 secs

     Computing kpt #:     5  of   162
     total cpu time spent up to now is        3.1 secs

     Computing kpt #:     6  of   162
     total cpu time spent up to now is        3.5 secs

     Computing kpt #:     7  of   162
     total cpu time spent up to now is        3.8 secs

     Computing kpt #:     8  of   162
     total cpu time spent up to now is        4.1 secs

     Computing kpt #:     9  of   162
     total cpu time spent up to now is        4.3 secs

     Computing kpt #:    10  of   162
     total cpu time spent up to now is        4.6 secs

     Computing kpt #:    11  of   162
     total cpu time spent up to now is        4.9 secs

     Computing kpt #:    12  of   162
     total cpu time spent up to now is        5.2 secs

     Computing kpt #:    13  of   162
     total cpu time spent up to now is        5.5 secs

     Computing kpt #:    14  of   162
     total cpu time spent up to now is        5.7 secs

     Computing kpt #:    15  of   162
     total cpu time spent up to now is        6.0 secs

     Computing kpt #:    16  of   162
     total cpu time spent up to now is        6.2 secs

     Computing kpt #:    17  of   162
     total cpu time spent up to now is        6.5 secs

     Computing kpt #:    18  of   162
     total cpu time spent up to now is        6.7 secs

     Computing kpt #:    19  of   162
     total cpu time spent up to now is        7.0 secs

     Computing kpt #:    20  of   162
     total cpu time spent up to now is        7.2 secs

     Computing kpt #:    21  of   162
     total cpu time spent up to now is        7.4 secs

     Computing kpt #:    22  of   162
     total cpu time spent up to now is        7.7 secs

     Computing kpt #:    23  of   162
     total cpu time spent up to now is        7.9 secs

     Computing kpt #:    24  of   162
     total cpu time spent up to now is        8.2 secs

     Computing kpt #:    25  of   162
     total cpu time spent up to now is        8.4 secs

     Computing kpt #:    26  of   162
     total cpu time spent up to now is        8.7 secs

     Computing kpt #:    27  of   162
     total cpu time spent up to now is        8.9 secs

     Computing kpt #:    28  of   162
     total cpu time spent up to now is        9.2 secs

     Computing kpt #:    29  of   162
     total cpu time spent up to now is        9.5 secs

     Computing kpt #:    30  of   162
     total cpu time spent up to now is        9.8 secs

     Computing kpt #:    31  of   162
     total cpu time spent up to now is       10.1 secs

     Computing kpt #:    32  of   162
     total cpu time spent up to now is       10.4 secs

     Computing kpt #:    33  of   162
     total cpu time spent up to now is       10.7 secs

     Computing kpt #:    34  of   162
     total cpu time spent up to now is       11.0 secs

     Computing kpt #:    35  of   162
     total cpu time spent up to now is       11.4 secs

     Computing kpt #:    36  of   162
     total cpu time spent up to now is       11.7 secs

     Computing kpt #:    37  of   162
     total cpu time spent up to now is       12.0 secs

     Computing kpt #:    38  of   162
     total cpu time spent up to now is       12.4 secs

     Computing kpt #:    39  of   162
     total cpu time spent up to now is       12.6 secs

     Computing kpt #:    40  of   162
     total cpu time spent up to now is       13.0 secs

     Computing kpt #:    41  of   162
     total cpu time spent up to now is       13.3 secs

     Computing kpt #:    42  of   162
     total cpu time spent up to now is       13.6 secs

     Computing kpt #:    43  of   162
     total cpu time spent up to now is       14.0 secs

     Computing kpt #:    44  of   162
     total cpu time spent up to now is       14.3 secs

     Computing kpt #:    45  of   162
     total cpu time spent up to now is       14.7 secs

     Computing kpt #:    46  of   162
     total cpu time spent up to now is       15.0 secs

     Computing kpt #:    47  of   162
     total cpu time spent up to now is       15.3 secs

     Computing kpt #:    48  of   162
     total cpu time spent up to now is       15.6 secs

     Computing kpt #:    49  of   162
     total cpu time spent up to now is       15.9 secs

     Computing kpt #:    50  of   162
     total cpu time spent up to now is       16.2 secs

     Computing kpt #:    51  of   162
     total cpu time spent up to now is       16.5 secs

     Computing kpt #:    52  of   162
     total cpu time spent up to now is       16.9 secs

     Computing kpt #:    53  of   162
     total cpu time spent up to now is       17.2 secs

     Computing kpt #:    54  of   162
     total cpu time spent up to now is       17.5 secs

     Computing kpt #:    55  of   162
     total cpu time spent up to now is       17.8 secs

     Computing kpt #:    56  of   162
     total cpu time spent up to now is       18.2 secs

     Computing kpt #:    57  of   162
     total cpu time spent up to now is        6.7 secs

     Computing kpt #:    58  of   162
     total cpu time spent up to now is        7.0 secs

     Computing kpt #:    59  of   162
     total cpu time spent up to now is        7.3 secs

     Computing kpt #:    60  of   162
     total cpu time spent up to now is        7.7 secs

     Computing kpt #:    61  of   162
     total cpu time spent up to now is        8.1 secs

     Computing kpt #:    62  of   162
     total cpu time spent up to now is        8.4 secs

     Computing kpt #:    63  of   162
     total cpu time spent up to now is        8.8 secs

     Computing kpt #:    64  of   162
     total cpu time spent up to now is        9.1 secs

     Computing kpt #:    65  of   162
     total cpu time spent up to now is        9.5 secs

     Computing kpt #:    66  of   162
     total cpu time spent up to now is        9.8 secs

     Computing kpt #:    67  of   162
     total cpu time spent up to now is       10.0 secs

     Computing kpt #:    68  of   162
     total cpu time spent up to now is       10.4 secs

     Computing kpt #:    69  of   162
     total cpu time spent up to now is       10.7 secs

     Computing kpt #:    70  of   162
     total cpu time spent up to now is       11.0 secs

     Computing kpt #:    71  of   162
     total cpu time spent up to now is       11.3 secs

     Computing kpt #:    72  of   162
     total cpu time spent up to now is       11.6 secs

     Computing kpt #:    73  of   162
     total cpu time spent up to now is       11.9 secs

     Computing kpt #:    74  of   162
     total cpu time spent up to now is       12.2 secs

     Computing kpt #:    75  of   162
     total cpu time spent up to now is       12.5 secs

     Computing kpt #:    76  of   162
     total cpu time spent up to now is       12.8 secs

     Computing kpt #:    77  of   162
     total cpu time spent up to now is       13.0 secs

     Computing kpt #:    78  of   162
     total cpu time spent up to now is       13.2 secs

     Computing kpt #:    79  of   162
     total cpu time spent up to now is       13.5 secs

     Computing kpt #:    80  of   162
     total cpu time spent up to now is       13.7 secs

     Computing kpt #:    81  of   162
     total cpu time spent up to now is       13.9 secs

     Computing kpt #:    82  of   162
     total cpu time spent up to now is       14.2 secs

     Computing kpt #:    83  of   162
     total cpu time spent up to now is       14.5 secs

     Computing kpt #:    84  of   162
     total cpu time spent up to now is       14.8 secs

     Computing kpt #:    85  of   162
     total cpu time spent up to now is       15.2 secs

     Computing kpt #:    86  of   162
     total cpu time spent up to now is       15.6 secs

     Computing kpt #:    87  of   162
     total cpu time spent up to now is       15.9 secs

     Computing kpt #:    88  of   162
     total cpu time spent up to now is       16.1 secs

     Computing kpt #:    89  of   162
     total cpu time spent up to now is       16.4 secs

     Computing kpt #:    90  of   162
     total cpu time spent up to now is       16.8 secs

     Computing kpt #:    91  of   162
     total cpu time spent up to now is       17.1 secs

     Computing kpt #:    92  of   162
     total cpu time spent up to now is       17.3 secs

     Computing kpt #:    93  of   162
     total cpu time spent up to now is       17.6 secs

     Computing kpt #:    94  of   162
     total cpu time spent up to now is       17.9 secs

     Computing kpt #:    95  of   162
     total cpu time spent up to now is       18.2 secs

     Computing kpt #:    96  of   162
     total cpu time spent up to now is       18.5 secs

     Computing kpt #:    97  of   162
     total cpu time spent up to now is       18.7 secs

     Computing kpt #:    98  of   162
     total cpu time spent up to now is       18.9 secs

     Computing kpt #:    99  of   162
     total cpu time spent up to now is       19.1 secs

     Computing kpt #:   100  of   162
     total cpu time spent up to now is       19.4 secs

     Computing kpt #:   101  of   162
     total cpu time spent up to now is       19.6 secs

     Computing kpt #:   102  of   162
     total cpu time spent up to now is       19.8 secs

     Computing kpt #:   103  of   162
     total cpu time spent up to now is       20.1 secs

     Computing kpt #:   104  of   162
     total cpu time spent up to now is       20.3 secs

     Computing kpt #:   105  of   162
     total cpu time spent up to now is       20.6 secs

     Computing kpt #:   106  of   162
     total cpu time spent up to now is       20.8 secs

     Computing kpt #:   107  of   162
     total cpu time spent up to now is       21.1 secs

     Computing kpt #:   108  of   162
     total cpu time spent up to now is       21.4 secs

     Computing kpt #:   109  of   162
     total cpu time spent up to now is       21.6 secs

     Computing kpt #:   110  of   162
     total cpu time spent up to now is       21.9 secs

     Computing kpt #:   111  of   162
     total cpu time spent up to now is       22.2 secs

     Computing kpt #:   112  of   162
     total cpu time spent up to now is       22.5 secs

     Computing kpt #:   113  of   162
     total cpu time spent up to now is       22.9 secs

     Computing kpt #:   114  of   162
     total cpu time spent up to now is       23.2 secs

     Computing kpt #:   115  of   162
     total cpu time spent up to now is       23.4 secs

     Computing kpt #:   116  of   162
     total cpu time spent up to now is       23.7 secs

     Computing kpt #:   117  of   162
     total cpu time spent up to now is       24.1 secs

     Computing kpt #:   118  of   162
     total cpu time spent up to now is       24.4 secs

     Computing kpt #:   119  of   162
     total cpu time spent up to now is       24.7 secs

     Computing kpt #:   120  of   162
     total cpu time spent up to now is       25.1 secs

     Computing kpt #:   121  of   162
     total cpu time spent up to now is       25.6 secs

     Computing kpt #:   122  of   162
     total cpu time spent up to now is       26.0 secs

     Computing kpt #:   123  of   162
     total cpu time spent up to now is       26.3 secs

     Computing kpt #:   124  of   162
     total cpu time spent up to now is       26.6 secs

     Computing kpt #:   125  of   162
     total cpu time spent up to now is       13.9 secs

     Computing kpt #:   126  of   162
     total cpu time spent up to now is       14.2 secs

     Computing kpt #:   127  of   162
     total cpu time spent up to now is       14.5 secs

     Computing kpt #:   128  of   162
     total cpu time spent up to now is       14.8 secs

     Computing kpt #:   129  of   162
     total cpu time spent up to now is       15.1 secs

     Computing kpt #:   130  of   162
     total cpu time spent up to now is       15.4 secs

     Computing kpt #:   131  of   162
     total cpu time spent up to now is       15.7 secs

     Computing kpt #:   132  of   162
     total cpu time spent up to now is       16.0 secs

     Computing kpt #:   133  of   162
     total cpu time spent up to now is       16.3 secs

     Computing kpt #:   134  of   162
     total cpu time spent up to now is       16.6 secs

     Computing kpt #:   135  of   162
     total cpu time spent up to now is       16.9 secs

     Computing kpt #:   136  of   162
     total cpu time spent up to now is       17.2 secs

     Computing kpt #:   137  of   162
     total cpu time spent up to now is       17.5 secs

     Computing kpt #:   138  of   162
     total cpu time spent up to now is       17.8 secs

     Computing kpt #:   139  of   162
     total cpu time spent up to now is       18.1 secs

     Computing kpt #:   140  of   162
     total cpu time spent up to now is       18.5 secs

     Computing kpt #:   141  of   162
     total cpu time spent up to now is       18.7 secs

     Computing kpt #:   142  of   162
     total cpu time spent up to now is       19.1 secs

     Computing kpt #:   143  of   162
     total cpu time spent up to now is       19.4 secs

     Computing kpt #:   144  of   162
     total cpu time spent up to now is       19.8 secs

     Computing kpt #:   145  of   162
     total cpu time spent up to now is       20.2 secs

     Computing kpt #:   146  of   162
     total cpu time spent up to now is       20.5 secs

     Computing kpt #:   147  of   162
     total cpu time spent up to now is       20.7 secs

     Computing kpt #:   148  of   162
     total cpu time spent up to now is       21.0 secs

     Computing kpt #:   149  of   162
     total cpu time spent up to now is       21.4 secs

     Computing kpt #:   150  of   162
     total cpu time spent up to now is       21.7 secs

     Computing kpt #:   151  of   162
     total cpu time spent up to now is       22.0 secs

     Computing kpt #:   152  of   162
     total cpu time spent up to now is       22.3 secs

     Computing kpt #:   153  of   162
     total cpu time spent up to now is       22.5 secs

     Computing kpt #:   154  of   162
     total cpu time spent up to now is       22.8 secs

     Computing kpt #:   155  of   162
     total cpu time spent up to now is       23.1 secs

     Computing kpt #:   156  of   162
     total cpu time spent up to now is       23.4 secs

     Computing kpt #:   157  of   162
     total cpu time spent up to now is       23.5 secs

     Computing kpt #:   158  of   162
     total cpu time spent up to now is       23.8 secs

     Computing kpt #:   159  of   162
     total cpu time spent up to now is       24.0 secs

     Computing kpt #:   160  of   162
     total cpu time spent up to now is       24.3 secs

     Computing kpt #:   161  of   162
     total cpu time spent up to now is       24.5 secs

     Computing kpt #:   162  of   162
     total cpu time spent up to now is       24.8 secs

     ethr =  5.56E-11,  avg # of iterations = 26.6

     total cpu time spent up to now is       24.8 secs

     End of band structure calculation

 ------ SPIN UP ------------


          k = 0.5000 0.5000 0.5000 (  1802 PWs)   bands (ev):

    -8.1410  -8.0426  -8.0426  -7.9793  -7.9793  -4.2443   0.0780   5.5811
     5.5811   7.7210  11.3591  11.3591  14.5402

          k = 0.4750 0.4750 0.4750 (  1826 PWs)   bands (ev):

    -8.1406  -8.0427  -8.0427  -7.9794  -7.9794  -4.2629   0.1112   5.5860
     5.5860   7.7261  11.3619  11.3619  14.5420

          k = 0.4500 0.4500 0.4500 (  1823 PWs)   bands (ev):

    -8.1393  -8.0429  -8.0429  -7.9796  -7.9796  -4.3167   0.2090   5.6009
     5.6009   7.7414  11.3702  11.3702  14.5452

          k = 0.4250 0.4250 0.4250 (  1838 PWs)   bands (ev):

    -8.1373  -8.0433  -8.0433  -7.9800  -7.9800  -4.4009   0.3662   5.6255
     5.6255   7.7666  11.3826  11.3826  14.5405

          k = 0.4000 0.4000 0.4000 (  1832 PWs)   bands (ev):

    -8.1344  -8.0439  -8.0439  -7.9804  -7.9804  -4.5087   0.5761   5.6598
     5.6598   7.8017  11.3973  11.3973  14.5072

          k = 0.3750 0.3750 0.3750 (  1838 PWs)   bands (ev):

    -8.1309  -8.0446  -8.0446  -7.9809  -7.9809  -4.6333   0.8313   5.7034
     5.7034   7.8462  11.4113  11.4113  14.4065

          k = 0.3500 0.3500 0.3500 (  1844 PWs)   bands (ev):

    -8.1266  -8.0455  -8.0455  -7.9815  -7.9815  -4.7680   1.1251   5.7561
     5.7561   7.8995  11.4208  11.4208  14.1979

          k = 0.3250 0.3250 0.3250 (  1853 PWs)   bands (ev):

    -8.1219  -8.0465  -8.0465  -7.9820  -7.9820  -4.9076   1.4515   5.8172
     5.8172   7.9607  11.4214  11.4214  13.8849

          k = 0.3000 0.3000 0.3000 (  1841 PWs)   bands (ev):

    -8.1165  -8.0478  -8.0478  -7.9825  -7.9825  -5.0476   1.8056   5.8863
     5.8863   8.0286  11.4083  11.4083  13.5093

          k = 0.2750 0.2750 0.2750 (  1835 PWs)   bands (ev):

    -8.1108  -8.0491  -8.0491  -7.9830  -7.9830  -5.1845   2.1831   5.9624
     5.9624   8.1012  11.3770  11.3770  13.1062

          k = 0.2500 0.2500 0.2500 (  1829 PWs)   bands (ev):

    -8.1047  -8.0506  -8.0506  -7.9833  -7.9833  -5.3157   2.5806   6.0446
     6.0446   8.1757  11.3242  11.3242  12.6957

          k = 0.2250 0.2250 0.2250 (  1832 PWs)   bands (ev):

    -8.0985  -8.0522  -8.0522  -7.9836  -7.9836  -5.4391   2.9948   6.1315
     6.1315   8.2477  11.2491  11.2491  12.2900

          k = 0.2000 0.2000 0.2000 (  1841 PWs)   bands (ev):

    -8.0923  -8.0538  -8.0538  -7.9839  -7.9839  -5.5529   3.4228   6.2216
     6.2216   8.3104  11.1535  11.1535  11.8984

          k = 0.1750 0.1750 0.1750 (  1820 PWs)   bands (ev):

    -8.0863  -8.0554  -8.0554  -7.9840  -7.9840  -5.6559   3.8618   6.3128
     6.3128   8.3541  11.0425  11.0425  11.5313

          k = 0.1500 0.1500 0.1500 (  1829 PWs)   bands (ev):

    -8.0805  -8.0569  -8.0569  -7.9841  -7.9841  -5.7470   4.3087   6.4026
     6.4026   8.3642  10.9225  10.9225  11.2009

          k = 0.1250 0.1250 0.1250 (  1841 PWs)   bands (ev):

    -8.0754  -8.0583  -8.0583  -7.9841  -7.9841  -5.8254   4.7602   6.4881
     6.4881   8.3222  10.8017  10.8017  10.9229

          k = 0.1000 0.1000 0.1000 (  1835 PWs)   bands (ev):

    -8.0708  -8.0595  -8.0595  -7.9841  -7.9841  -5.8904   5.2125   6.5658
     6.5658   8.2098  10.6882  10.6882  10.7118

          k = 0.0750 0.0750 0.0750 (  1829 PWs)   bands (ev):

    -8.0670  -8.0605  -8.0605  -7.9840  -7.9840  -5.9415   5.6604   6.6320
     6.6320   8.0180  10.5723  10.5900  10.5900

          k = 0.0500 0.0500 0.0500 (  1828 PWs)   bands (ev):

    -8.0642  -8.0613  -8.0613  -7.9840  -7.9840  -5.9783   6.0952   6.6828
     6.6828   7.7549  10.4945  10.5140  10.5140

          k = 0.0250 0.0250 0.0250 (  1828 PWs)   bands (ev):

    -8.0625  -8.0617  -8.0617  -7.9840  -7.9840  -6.0005   6.4948   6.7148
     6.7148   7.4520  10.4592  10.4660  10.4660

          k = 0.0000 0.0000 0.0000 (  1837 PWs)   bands (ev):

    -8.0619  -8.0619  -8.0619  -7.9840  -7.9840  -6.0080   6.7257   6.7257
     6.7257   7.2520  10.4495  10.4495  10.4495

          k = 0.0000 0.0500 0.0000 (  1828 PWs)   bands (ev):

    -8.0629  -8.0616  -8.0616  -7.9841  -7.9839  -5.9981   6.4649   6.6918
     6.6918   7.5113  10.4126  10.4960  10.4960

          k = 0.0000 0.1000 0.0000 (  1824 PWs)   bands (ev):

    -8.0656  -8.0607  -8.0607  -7.9844  -7.9836  -5.9685   6.0464   6.5951
     6.5951   7.9236  10.3091  10.6301  10.6301

          k = 0.0000 0.1500 0.0000 (  1836 PWs)   bands (ev):

    -8.0701  -8.0593  -8.0593  -7.9851  -7.9832  -5.9194   5.6094   6.4483
     6.4483   8.3444  10.1573  10.8387  10.8387

          k = 0.0000 0.2000 0.0000 (  1840 PWs)   bands (ev):

    -8.0760  -8.0574  -8.0574  -7.9859  -7.9826  -5.8513   5.1703   6.2669
     6.2669   8.7452   9.9811  11.1065  11.1065

          k = 0.0000 0.2500 0.0000 (  1840 PWs)   bands (ev):

    -8.0830  -8.0549  -8.0549  -7.9869  -7.9819  -5.7646   4.7335   6.0644
     6.0644   9.0911   9.8162  11.4193  11.4193

          k = 0.0000 0.3000 0.0000 (  1836 PWs)   bands (ev):

    -8.0909  -8.0521  -8.0521  -7.9882  -7.9811  -5.6601   4.3007   5.8518
     5.8518   9.2728   9.7638  11.7661  11.7661

          k = 0.0000 0.3500 0.0000 (  1832 PWs)   bands (ev):

    -8.0994  -8.0488  -8.0488  -7.9898  -7.9801  -5.5384   3.8732   5.6368
     5.6368   9.1970   9.9000  12.1383  12.1383

          k = 0.0000 0.4000 0.0000 (  1824 PWs)   bands (ev):

    -8.1081  -8.0453  -8.0453  -7.9916  -7.9790  -5.4004   3.4518   5.4255
     5.4255   9.0331  10.0327  12.5298  12.5298

          k = 0.0000 0.4500 0.0000 (  1820 PWs)   bands (ev):

    -8.1168  -8.0415  -8.0415  -7.9935  -7.9780  -5.2474   3.0374   5.2220
     5.2220   8.8609  10.0687  12.9357  12.9357

          k = 0.0000 0.5000 0.0000 (  1828 PWs)   bands (ev):

    -8.1253  -8.0377  -8.0377  -7.9955  -7.9768  -5.0805   2.6314   5.0295
     5.0295   8.6985  10.0000  13.3525  13.3525

          k = 0.0000 0.5500 0.0000 (  1824 PWs)   bands (ev):

    -8.1335  -8.0338  -8.0338  -7.9976  -7.9757  -4.9015   2.2352   4.8504
     4.8504   8.5522   9.8517  13.7772  13.7772

          k = 0.0000 0.6000 0.0000 (  1832 PWs)   bands (ev):

    -8.1412  -8.0300  -8.0300  -7.9997  -7.9746  -4.7125   1.8511   4.6865
     4.6865   8.4251   9.6563  14.2072  14.2072

          k = 0.0000 0.6500 0.0000 (  1820 PWs)   bands (ev):

    -8.1482  -8.0263  -8.0263  -8.0016  -7.9736  -4.5163   1.4821   4.5393
     4.5393   8.3192   9.4408  14.6398  14.6398

          k = 0.0000 0.7000 0.0000 (  1820 PWs)   bands (ev):

    -8.1545  -8.0230  -8.0230  -8.0035  -7.9727  -4.3169   1.1320   4.4098
     4.4098   8.2358   9.2233  15.0714  15.0714

          k = 0.0000 0.7500 0.0000 (  1808 PWs)   bands (ev):

    -8.1600  -8.0199  -8.0199  -8.0051  -7.9718  -4.1196   0.8066   4.2989
     4.2989   8.1758   9.0158  15.4971  15.4971

          k = 0.0000 0.8000 0.0000 (  1804 PWs)   bands (ev):

    -8.1646  -8.0173  -8.0173  -8.0066  -7.9710  -3.9316   0.5133   4.2072
     4.2072   8.1396   8.8258  15.9083  15.9083

          k = 0.0000 0.8500 0.0000 (  1796 PWs)   bands (ev):

    -8.1681  -8.0152  -8.0152  -8.0078  -7.9704  -3.7630   0.2625   4.1355
     4.1355   8.1272   8.6584  16.2904  16.2904

          k = 0.0000 0.9000 0.0000 (  1796 PWs)   bands (ev):

    -8.1707  -8.0136  -8.0136  -8.0087  -7.9700  -3.6264   0.0670   4.0839
     4.0839   8.1371   8.5182  16.6179  16.6179

          k = 0.0000 0.9500 0.0000 (  1776 PWs)   bands (ev):

    -8.1722  -8.0127  -8.0127  -8.0092  -7.9697  -3.5362  -0.0586   4.0529
     4.0529   8.1633   8.4133  16.8495  16.8495

          k = 0.0000 1.0000 0.0000 (  1772 PWs)   bands (ev):

    -8.1728  -8.0123  -8.0123  -8.0093  -7.9696  -3.5045  -0.1021   4.0425
     4.0425   8.1818   8.3685  16.9352  16.9352

          k = 0.0000 0.9875 0.0375 (  1781 PWs)   bands (ev):

    -8.1726  -8.0126  -8.0126  -8.0090  -7.9697  -3.5057  -0.0972   4.0287
     4.0315   8.2086   8.4004  16.8604  16.8794

          k = 0.0000 0.9750 0.0750 (  1796 PWs)   bands (ev):

    -8.1721  -8.0134  -8.0132  -8.0081  -7.9700  -3.5092  -0.0825   3.9881
     4.0002   8.2886   8.4937  16.6192  16.7429

          k = 0.0000 0.9625 0.1125 (  1800 PWs)   bands (ev):

    -8.1712  -8.0146  -8.0139  -8.0069  -7.9705  -3.5149  -0.0591   3.9236
     3.9537   8.4202   8.6425  16.2359  16.5552

          k = 0.0000 0.9500 0.1500 (  1806 PWs)   bands (ev):

    -8.1699  -8.0163  -8.0146  -8.0056  -7.9711  -3.5223  -0.0284   3.8395
     3.8988   8.6001   8.8394  15.7618  16.3307

          k = 0.0000 0.9375 0.1875 (  1805 PWs)   bands (ev):

    -8.1684  -8.0182  -8.0153  -8.0042  -7.9719  -3.5310   0.0076   3.7410
     3.8426   8.8237   9.0769  15.2375  16.0777

          k = 0.0000 0.9250 0.2250 (  1811 PWs)   bands (ev):

    -8.1667  -8.0205  -8.0159  -8.0027  -7.9727  -3.5404   0.0466   3.6335
     3.7918   9.0856   9.3482  14.6886  15.8030

          k = 0.0000 0.9125 0.2625 (  1813 PWs)   bands (ev):

    -8.1649  -8.0228  -8.0165  -8.0011  -7.9737  -3.5502   0.0858   3.5218
     3.7526   9.3807   9.6470  14.1316  15.5127

          k = 0.0000 0.9000 0.3000 (  1818 PWs)   bands (ev):

    -8.1630  -8.0252  -8.0171  -7.9995  -7.9748  -3.5597   0.1227   3.4102
     3.7298   9.7039   9.9670  13.5780  15.2127

          k = 0.0000 0.8875 0.3375 (  1813 PWs)   bands (ev):

    -8.1612  -8.0274  -8.0176  -7.9979  -7.9758  -3.5685   0.1548   3.3020
     3.7274  10.0490  10.3014  13.0389  14.9089

          k = 0.0000 0.8750 0.3750 (  1813 PWs)   bands (ev):

    -8.1597  -8.0294  -8.0181  -7.9964  -7.9769  -3.5761   0.1800   3.2002
     3.7477  10.4054  10.6409  12.5306  14.6075

          k = 0.0000 0.8625 0.4125 (  1812 PWs)   bands (ev):

    -8.1583  -8.0310  -8.0186  -7.9950  -7.9779  -3.5822   0.1971   3.1070
     3.7916  10.7340  10.9759  12.0965  14.3157

          k = 0.0000 0.8500 0.4500 (  1810 PWs)   bands (ev):

    -8.1574  -8.0320  -8.0191  -7.9939  -7.9786  -3.5864   0.2056   3.0243
     3.8583  10.8619  11.3268  11.8795  14.0444

          k = 0.0000 0.8375 0.4875 (  1815 PWs)   bands (ev):

    -8.1569  -8.0326  -8.0195  -7.9932  -7.9792  -3.5886   0.2057   2.9535
     3.9449  10.6334  11.7123  11.9980  13.8132

          k = 0.0000 0.8250 0.5250 (  1819 PWs)   bands (ev):

    -8.1567  -8.0325  -8.0199  -7.9930  -7.9794  -3.5885   0.1983   2.8957
     4.0469  10.2582  12.0536  12.2821  13.6619

          k = 0.0000 0.8125 0.5625 (  1819 PWs)   bands (ev):

    -8.1570  -8.0320  -8.0201  -7.9931  -7.9792  -3.5861   0.1850   2.8518
     4.1575   9.8691  12.2032  12.6835  13.6536

          k = 0.0000 0.8000 0.6000 (  1821 PWs)   bands (ev):

    -8.1575  -8.0311  -8.0203  -7.9937  -7.9788  -3.5813   0.1673   2.8225
     4.2677   9.5069  12.1643  13.1344  13.8102

          k = 0.0000 0.7875 0.6375 (  1813 PWs)   bands (ev):

    -8.1583  -8.0298  -8.0203  -7.9946  -7.9781  -3.5742   0.1468   2.8082
     4.3664   9.1916  12.0122  13.6002  14.0655

          k = 0.0000 0.7750 0.6750 (  1810 PWs)   bands (ev):

    -8.1593  -8.0285  -8.0202  -7.9955  -7.9774  -3.5649   0.1251   2.8093
     4.4402   8.9394  11.8103  14.0660  14.3398

          k = 0.0000 0.7625 0.7125 (  1816 PWs)   bands (ev):

    -8.1603  -8.0273  -8.0198  -7.9965  -7.9768  -3.5536   0.1036   2.8259
     4.4756   8.7649  11.5905  14.4991  14.5800

          k = 0.0000 0.7500 0.7500 (  1822 PWs)   bands (ev):

    -8.1613  -8.0263  -8.0193  -7.9975  -7.9762  -3.5406   0.0833   2.8579
     4.4620   8.6796  11.3672  14.7113  14.8157

          k = 0.0000 0.7125 0.7125 (  1810 PWs)   bands (ev):

    -8.1584  -8.0288  -8.0214  -7.9948  -7.9778  -3.5936   0.1491   2.7701
     4.5900   8.8010  12.0108  14.4058  14.4588

          k = 0.0000 0.6750 0.6750 (  1798 PWs)   bands (ev):

    -8.1553  -8.0311  -8.0237  -7.9922  -7.9794  -3.6731   0.2354   2.7458
     4.7313   8.9308  12.5227  14.0083  14.3541

          k = 0.0000 0.6375 0.6375 (  1812 PWs)   bands (ev):

    -8.1522  -8.0331  -8.0262  -7.9897  -7.9809  -3.7807   0.3491   2.7831
     4.8841   9.0641  12.7438  13.6268  13.9985

          k = 0.0000 0.6000 0.6000 (  1810 PWs)   bands (ev):

    -8.1488  -8.0348  -8.0289  -7.9874  -7.9824  -3.9149   0.4962   2.8770
     5.0459   9.1944  12.7072  13.2639  13.5764

          k = 0.0000 0.5625 0.5625 (  1814 PWs)   bands (ev):

    -8.1451  -8.0364  -8.0317  -7.9854  -7.9836  -4.0718   0.6805   3.0207
     5.2142   9.3131  12.5771  12.9212  13.1762

          k = 0.0000 0.5250 0.5250 (  1820 PWs)   bands (ev):

    -8.1410  -8.0378  -8.0346  -7.9847  -7.9838  -4.2460   0.9035   3.2077
     5.3860   9.4098  12.4374  12.5999  12.8084

          k = 0.0000 0.4875 0.4875 (  1827 PWs)   bands (ev):

    -8.1364  -8.0391  -8.0375  -7.9856  -7.9826  -4.4312   1.1648   3.4316
     5.5582   9.4738  12.2889  12.3008  12.5098

          k = 0.0000 0.4500 0.4500 (  1831 PWs)   bands (ev):

    -8.1312  -8.0404  -8.0404  -7.9862  -7.9819  -4.6214   1.4628   3.6870
     5.7272   9.4969  12.0243  12.0444  12.3816

          k = 0.0000 0.4125 0.4125 (  1845 PWs)   bands (ev):

    -8.1253  -8.0433  -8.0419  -7.9866  -7.9815  -4.8112   1.7956   3.9684
     5.8895   9.4767  11.7608  11.7705  12.3638

          k = 0.0000 0.3750 0.3750 (  1835 PWs)   bands (ev):

    -8.1189  -8.0461  -8.0436  -7.9868  -7.9814  -4.9960   2.1610   4.2710
     6.0419   9.4170  11.4932  11.5396  12.3826

          k = 0.0000 0.3375 0.3375 (  1837 PWs)   bands (ev):

    -8.1119  -8.0487  -8.0455  -7.9867  -7.9815  -5.1721   2.5565   4.5891
     6.1813   9.3255  11.2514  11.3314  12.3936

          k = 0.0000 0.3000 0.3000 (  1829 PWs)   bands (ev):

    -8.1045  -8.0512  -8.0477  -7.9866  -7.9818  -5.3364   2.9800   4.9170
     6.3054   9.2096  11.0392  11.1456  12.3487

          k = 0.0000 0.2625 0.2625 (  1839 PWs)   bands (ev):

    -8.0969  -8.0536  -8.0500  -7.9862  -7.9822  -5.4864   3.4288   5.2473
     6.4127   9.0739  10.8585  10.9821  12.2045

          k = 0.0000 0.2250 0.2250 (  1839 PWs)   bands (ev):

    -8.0893  -8.0557  -8.0525  -7.9858  -7.9826  -5.6201   3.9003   5.5715
     6.5027   8.9181  10.7112  10.8407  11.9484

          k = 0.0000 0.1875 0.1875 (  1835 PWs)   bands (ev):

    -8.0821  -8.0575  -8.0549  -7.9854  -7.9830  -5.7359   4.3913   5.8791
     6.5757   8.7362  10.5985  10.7211  11.6109

          k = 0.0000 0.1500 0.1500 (  1841 PWs)   bands (ev):

    -8.0755  -8.0591  -8.0571  -7.9850  -7.9833  -5.8324   4.8976   6.1577
     6.6326   8.5162  10.5204  10.6233  11.2480

          k = 0.0000 0.1125 0.1125 (  1835 PWs)   bands (ev):

    -8.0698  -8.0603  -8.0591  -7.9846  -7.9836  -5.9086   5.4132   6.3938
     6.6747   8.2429  10.4745  10.5473  10.9166

          k = 0.0000 0.0750 0.0750 (  1825 PWs)   bands (ev):

    -8.0655  -8.0612  -8.0606  -7.9842  -7.9838  -5.9636   5.9283   6.5741
     6.7036   7.9073  10.4544  10.4930  10.6603

          k = 0.0000 0.0375 0.0375 (  1829 PWs)   bands (ev):

    -8.0628  -8.0617  -8.0616  -7.9840  -7.9839  -5.9968   6.4186   6.6872
     6.7203   7.5240  10.4496  10.4604  10.5023

          k = 0.0000 0.0000 0.0000 (  1837 PWs)   bands (ev):

    -8.0619  -8.0619  -8.0619  -7.9840  -7.9840  -6.0080   6.7257   6.7257
     6.7257   7.2520  10.4495  10.4495  10.4495

 ------ SPIN DOWN ----------


          k = 0.5000 0.5000 0.5000 (  1802 PWs)   bands (ev):

    -8.1410  -8.0426  -8.0426  -7.9792  -7.9792  -4.2443   0.0780   5.5811
     5.5811   7.7209  11.3590  11.3590  14.5401

          k = 0.4750 0.4750 0.4750 (  1826 PWs)   bands (ev):

    -8.1406  -8.0427  -8.0427  -7.9794  -7.9794  -4.2628   0.1112   5.5860
     5.5860   7.7260  11.3618  11.3618  14.5419

          k = 0.4500 0.4500 0.4500 (  1823 PWs)   bands (ev):

    -8.1393  -8.0429  -8.0429  -7.9796  -7.9796  -4.3167   0.2090   5.6009
     5.6009   7.7413  11.3701  11.3701  14.5451

          k = 0.4250 0.4250 0.4250 (  1838 PWs)   bands (ev):

    -8.1373  -8.0433  -8.0433  -7.9800  -7.9800  -4.4009   0.3662   5.6255
     5.6255   7.7666  11.3826  11.3826  14.5404

          k = 0.4000 0.4000 0.4000 (  1832 PWs)   bands (ev):

    -8.1344  -8.0438  -8.0438  -7.9804  -7.9804  -4.5087   0.5761   5.6598
     5.6598   7.8017  11.3973  11.3973  14.5071

          k = 0.3750 0.3750 0.3750 (  1838 PWs)   bands (ev):

    -8.1309  -8.0446  -8.0446  -7.9809  -7.9809  -4.6332   0.8313   5.7035
     5.7035   7.8461  11.4113  11.4113  14.4064

          k = 0.3500 0.3500 0.3500 (  1844 PWs)   bands (ev):

    -8.1266  -8.0455  -8.0455  -7.9815  -7.9815  -4.7680   1.1251   5.7561
     5.7561   7.8994  11.4208  11.4208  14.1978

          k = 0.3250 0.3250 0.3250 (  1853 PWs)   bands (ev):

    -8.1219  -8.0465  -8.0465  -7.9820  -7.9820  -4.9076   1.4515   5.8172
     5.8172   7.9606  11.4214  11.4214  13.8849

          k = 0.3000 0.3000 0.3000 (  1841 PWs)   bands (ev):

    -8.1165  -8.0477  -8.0477  -7.9825  -7.9825  -5.0476   1.8056   5.8863
     5.8863   8.0285  11.4083  11.4083  13.5093

          k = 0.2750 0.2750 0.2750 (  1835 PWs)   bands (ev):

    -8.1108  -8.0491  -8.0491  -7.9830  -7.9830  -5.1845   2.1831   5.9624
     5.9624   8.1012  11.3769  11.3769  13.1061

          k = 0.2500 0.2500 0.2500 (  1829 PWs)   bands (ev):

    -8.1047  -8.0506  -8.0506  -7.9833  -7.9833  -5.3157   2.5806   6.0446
     6.0446   8.1757  11.3242  11.3242  12.6957

          k = 0.2250 0.2250 0.2250 (  1832 PWs)   bands (ev):

    -8.0985  -8.0522  -8.0522  -7.9836  -7.9836  -5.4390   2.9948   6.1315
     6.1315   8.2476  11.2490  11.2490  12.2900

          k = 0.2000 0.2000 0.2000 (  1841 PWs)   bands (ev):

    -8.0923  -8.0538  -8.0538  -7.9839  -7.9839  -5.5528   3.4228   6.2216
     6.2216   8.3104  11.1535  11.1535  11.8984

          k = 0.1750 0.1750 0.1750 (  1820 PWs)   bands (ev):

    -8.0862  -8.0554  -8.0554  -7.9840  -7.9840  -5.6558   3.8618   6.3129
     6.3129   8.3540  11.0424  11.0424  11.5312

          k = 0.1500 0.1500 0.1500 (  1829 PWs)   bands (ev):

    -8.0805  -8.0569  -8.0569  -7.9840  -7.9840  -5.7470   4.3087   6.4027
     6.4027   8.3642  10.9225  10.9225  11.2009

          k = 0.1250 0.1250 0.1250 (  1841 PWs)   bands (ev):

    -8.0753  -8.0583  -8.0583  -7.9841  -7.9841  -5.8254   4.7602   6.4881
     6.4881   8.3222  10.8017  10.8017  10.9229

          k = 0.1000 0.1000 0.1000 (  1835 PWs)   bands (ev):

    -8.0708  -8.0595  -8.0595  -7.9841  -7.9841  -5.8904   5.2125   6.5659
     6.5659   8.2098  10.6882  10.6882  10.7118

          k = 0.0750 0.0750 0.0750 (  1829 PWs)   bands (ev):

    -8.0670  -8.0605  -8.0605  -7.9840  -7.9840  -5.9415   5.6604   6.6321
     6.6321   8.0179  10.5723  10.5900  10.5900

          k = 0.0500 0.0500 0.0500 (  1828 PWs)   bands (ev):

    -8.0642  -8.0613  -8.0613  -7.9840  -7.9840  -5.9783   6.0952   6.6828
     6.6828   7.7549  10.4944  10.5140  10.5140

          k = 0.0250 0.0250 0.0250 (  1828 PWs)   bands (ev):

    -8.0625  -8.0617  -8.0617  -7.9840  -7.9840  -6.0005   6.4948   6.7149
     6.7149   7.4520  10.4591  10.4659  10.4659

          k = 0.0000 0.0000 0.0000 (  1837 PWs)   bands (ev):

    -8.0619  -8.0619  -8.0619  -7.9840  -7.9840  -6.0079   6.7258   6.7258
     6.7258   7.2519  10.4495  10.4495  10.4495

          k = 0.0000 0.0500 0.0000 (  1828 PWs)   bands (ev):

    -8.0628  -8.0616  -8.0616  -7.9841  -7.9839  -5.9981   6.4649   6.6919
     6.6919   7.5113  10.4125  10.4959  10.4959

          k = 0.0000 0.1000 0.0000 (  1824 PWs)   bands (ev):

    -8.0656  -8.0607  -8.0607  -7.9844  -7.9836  -5.9685   6.0464   6.5951
     6.5951   7.9236  10.3090  10.6300  10.6300

          k = 0.0000 0.1500 0.0000 (  1836 PWs)   bands (ev):

    -8.0701  -8.0593  -8.0593  -7.9850  -7.9832  -5.9194   5.6094   6.4483
     6.4483   8.3444  10.1572  10.8387  10.8387

          k = 0.0000 0.2000 0.0000 (  1840 PWs)   bands (ev):

    -8.0760  -8.0574  -8.0574  -7.9859  -7.9826  -5.8513   5.1703   6.2669
     6.2669   8.7452   9.9811  11.1064  11.1064

          k = 0.0000 0.2500 0.0000 (  1840 PWs)   bands (ev):

    -8.0830  -8.0549  -8.0549  -7.9869  -7.9819  -5.7646   4.7335   6.0645
     6.0645   9.0911   9.8161  11.4193  11.4193

          k = 0.0000 0.3000 0.0000 (  1836 PWs)   bands (ev):

    -8.0909  -8.0520  -8.0520  -7.9882  -7.9811  -5.6601   4.3008   5.8518
     5.8518   9.2728   9.7638  11.7661  11.7661

          k = 0.0000 0.3500 0.0000 (  1832 PWs)   bands (ev):

    -8.0993  -8.0488  -8.0488  -7.9898  -7.9801  -5.5383   3.8732   5.6369
     5.6369   9.1969   9.9000  12.1383  12.1383

          k = 0.0000 0.4000 0.0000 (  1824 PWs)   bands (ev):

    -8.1080  -8.0452  -8.0452  -7.9916  -7.9790  -5.4004   3.4518   5.4255
     5.4255   9.0330  10.0327  12.5298  12.5298

          k = 0.0000 0.4500 0.0000 (  1820 PWs)   bands (ev):

    -8.1168  -8.0415  -8.0415  -7.9935  -7.9779  -5.2473   3.0375   5.2220
     5.2220   8.8608  10.0687  12.9357  12.9357

          k = 0.0000 0.5000 0.0000 (  1828 PWs)   bands (ev):

    -8.1253  -8.0377  -8.0377  -7.9955  -7.9768  -5.0805   2.6314   5.0295
     5.0295   8.6984  10.0000  13.3524  13.3524

          k = 0.0000 0.5500 0.0000 (  1824 PWs)   bands (ev):

    -8.1335  -8.0338  -8.0338  -7.9976  -7.9757  -4.9014   2.2352   4.8505
     4.8505   8.5521   9.8517  13.7772  13.7772

          k = 0.0000 0.6000 0.0000 (  1832 PWs)   bands (ev):

    -8.1412  -8.0300  -8.0300  -7.9996  -7.9746  -4.7124   1.8511   4.6865
     4.6865   8.4250   9.6563  14.2071  14.2071

          k = 0.0000 0.6500 0.0000 (  1820 PWs)   bands (ev):

    -8.1482  -8.0263  -8.0263  -8.0016  -7.9736  -4.5163   1.4821   4.5393
     4.5393   8.3192   9.4408  14.6398  14.6398

          k = 0.0000 0.7000 0.0000 (  1820 PWs)   bands (ev):

    -8.1545  -8.0229  -8.0229  -8.0035  -7.9726  -4.3169   1.1320   4.4098
     4.4098   8.2358   9.2232  15.0714  15.0714

          k = 0.0000 0.7500 0.0000 (  1808 PWs)   bands (ev):

    -8.1600  -8.0199  -8.0199  -8.0051  -7.9718  -4.1195   0.8066   4.2989
     4.2989   8.1758   9.0157  15.4971  15.4971

          k = 0.0000 0.8000 0.0000 (  1804 PWs)   bands (ev):

    -8.1645  -8.0173  -8.0173  -8.0066  -7.9710  -3.9316   0.5133   4.2073
     4.2073   8.1395   8.8257  15.9083  15.9083

          k = 0.0000 0.8500 0.0000 (  1796 PWs)   bands (ev):

    -8.1681  -8.0152  -8.0152  -8.0078  -7.9704  -3.7629   0.2625   4.1355
     4.1355   8.1272   8.6583  16.2903  16.2903

          k = 0.0000 0.9000 0.0000 (  1796 PWs)   bands (ev):

    -8.1707  -8.0136  -8.0136  -8.0087  -7.9700  -3.6264   0.0670   4.0839
     4.0839   8.1370   8.5182  16.6178  16.6178

          k = 0.0000 0.9500 0.0000 (  1776 PWs)   bands (ev):

    -8.1722  -8.0126  -8.0126  -8.0092  -7.9697  -3.5362  -0.0586   4.0529
     4.0529   8.1633   8.4133  16.8495  16.8495

          k = 0.0000 1.0000 0.0000 (  1772 PWs)   bands (ev):

    -8.1728  -8.0123  -8.0123  -8.0093  -7.9696  -3.5045  -0.1022   4.0426
     4.0426   8.1817   8.3684  16.9352  16.9352

          k = 0.0000 0.9875 0.0375 (  1781 PWs)   bands (ev):

    -8.1726  -8.0126  -8.0126  -8.0090  -7.9697  -3.5057  -0.0972   4.0287
     4.0315   8.2085   8.4003  16.8604  16.8793

          k = 0.0000 0.9750 0.0750 (  1796 PWs)   bands (ev):

    -8.1720  -8.0134  -8.0132  -8.0081  -7.9700  -3.5092  -0.0825   3.9881
     4.0002   8.2885   8.4937  16.6192  16.7429

          k = 0.0000 0.9625 0.1125 (  1800 PWs)   bands (ev):

    -8.1711  -8.0146  -8.0139  -8.0069  -7.9705  -3.5148  -0.0591   3.9236
     3.9537   8.4202   8.6425  16.2359  16.5552

          k = 0.0000 0.9500 0.1500 (  1806 PWs)   bands (ev):

    -8.1699  -8.0163  -8.0146  -8.0056  -7.9711  -3.5222  -0.0284   3.8395
     3.8988   8.6001   8.8394  15.7618  16.3306

          k = 0.0000 0.9375 0.1875 (  1805 PWs)   bands (ev):

    -8.1684  -8.0182  -8.0153  -8.0042  -7.9718  -3.5309   0.0076   3.7410
     3.8426   8.8236   9.0769  15.2375  16.0777

          k = 0.0000 0.9250 0.2250 (  1811 PWs)   bands (ev):

    -8.1667  -8.0205  -8.0159  -8.0027  -7.9727  -3.5404   0.0465   3.6335
     3.7918   9.0856   9.3482  14.6886  15.8030

          k = 0.0000 0.9125 0.2625 (  1813 PWs)   bands (ev):

    -8.1648  -8.0228  -8.0165  -8.0011  -7.9737  -3.5502   0.0858   3.5218
     3.7526   9.3807   9.6470  14.1316  15.5127

          k = 0.0000 0.9000 0.3000 (  1818 PWs)   bands (ev):

    -8.1630  -8.0252  -8.0171  -7.9995  -7.9747  -3.5597   0.1227   3.4102
     3.7298   9.7038   9.9670  13.5780  15.2126

          k = 0.0000 0.8875 0.3375 (  1813 PWs)   bands (ev):

    -8.1612  -8.0274  -8.0176  -7.9979  -7.9758  -3.5684   0.1548   3.3020
     3.7274  10.0490  10.3013  13.0389  14.9089

          k = 0.0000 0.8750 0.3750 (  1813 PWs)   bands (ev):

    -8.1596  -8.0294  -8.0181  -7.9964  -7.9769  -3.5761   0.1800   3.2002
     3.7477  10.4054  10.6408  12.5306  14.6074

          k = 0.0000 0.8625 0.4125 (  1812 PWs)   bands (ev):

    -8.1583  -8.0309  -8.0186  -7.9950  -7.9778  -3.5821   0.1971   3.1070
     3.7916  10.7339  10.9758  12.0965  14.3156

          k = 0.0000 0.8500 0.4500 (  1810 PWs)   bands (ev):

    -8.1574  -8.0320  -8.0191  -7.9939  -7.9786  -3.5864   0.2056   3.0243
     3.8583  10.8619  11.3267  11.8794  14.0443

          k = 0.0000 0.8375 0.4875 (  1815 PWs)   bands (ev):

    -8.1568  -8.0326  -8.0195  -7.9932  -7.9792  -3.5885   0.2056   2.9535
     3.9449  10.6334  11.7122  11.9980  13.8131

          k = 0.0000 0.8250 0.5250 (  1819 PWs)   bands (ev):

    -8.1567  -8.0325  -8.0198  -7.9929  -7.9794  -3.5885   0.1983   2.8957
     4.0469  10.2581  12.0536  12.2821  13.6619

          k = 0.0000 0.8125 0.5625 (  1819 PWs)   bands (ev):

    -8.1569  -8.0320  -8.0201  -7.9931  -7.9792  -3.5861   0.1850   2.8518
     4.1575   9.8691  12.2032  12.6834  13.6535

          k = 0.0000 0.8000 0.6000 (  1821 PWs)   bands (ev):

    -8.1575  -8.0311  -8.0203  -7.9937  -7.9787  -3.5813   0.1672   2.8225
     4.2677   9.5068  12.1642  13.1344  13.8102

          k = 0.0000 0.7875 0.6375 (  1813 PWs)   bands (ev):

    -8.1583  -8.0298  -8.0203  -7.9945  -7.9781  -3.5741   0.1468   2.8082
     4.3664   9.1915  12.0122  13.6001  14.0654

          k = 0.0000 0.7750 0.6750 (  1810 PWs)   bands (ev):

    -8.1593  -8.0285  -8.0202  -7.9955  -7.9774  -3.5648   0.1251   2.8093
     4.4402   8.9393  11.8103  14.0659  14.3397

          k = 0.0000 0.7625 0.7125 (  1816 PWs)   bands (ev):

    -8.1603  -8.0273  -8.0198  -7.9965  -7.9768  -3.5535   0.1036   2.8259
     4.4757   8.7649  11.5904  14.4991  14.5800

          k = 0.0000 0.7500 0.7500 (  1822 PWs)   bands (ev):

    -8.1613  -8.0263  -8.0193  -7.9975  -7.9762  -3.5405   0.0833   2.8579
     4.4620   8.6795  11.3671  14.7113  14.8157

          k = 0.0000 0.7125 0.7125 (  1810 PWs)   bands (ev):

    -8.1583  -8.0288  -8.0213  -7.9948  -7.9778  -3.5936   0.1491   2.7701
     4.5900   8.8009  12.0108  14.4057  14.4587

          k = 0.0000 0.6750 0.6750 (  1798 PWs)   bands (ev):

    -8.1553  -8.0311  -8.0237  -7.9922  -7.9794  -3.6731   0.2354   2.7458
     4.7314   8.9307  12.5227  14.0083  14.3540

          k = 0.0000 0.6375 0.6375 (  1812 PWs)   bands (ev):

    -8.1522  -8.0331  -8.0262  -7.9897  -7.9809  -3.7806   0.3491   2.7831
     4.8841   9.0640  12.7438  13.6268  13.9985

          k = 0.0000 0.6000 0.6000 (  1810 PWs)   bands (ev):

    -8.1488  -8.0348  -8.0289  -7.9874  -7.9824  -3.9148   0.4962   2.8770
     5.0459   9.1944  12.7072  13.2638  13.5763

          k = 0.0000 0.5625 0.5625 (  1814 PWs)   bands (ev):

    -8.1451  -8.0364  -8.0317  -7.9854  -7.9836  -4.0718   0.6805   3.0207
     5.2142   9.3131  12.5771  12.9211  13.1762

          k = 0.0000 0.5250 0.5250 (  1820 PWs)   bands (ev):

    -8.1410  -8.0377  -8.0346  -7.9847  -7.9838  -4.2460   0.9035   3.2077
     5.3860   9.4098  12.4374  12.5999  12.8083

          k = 0.0000 0.4875 0.4875 (  1827 PWs)   bands (ev):

    -8.1364  -8.0391  -8.0375  -7.9856  -7.9826  -4.4312   1.1647   3.4316
     5.5582   9.4737  12.2889  12.3007  12.5097

          k = 0.0000 0.4500 0.4500 (  1831 PWs)   bands (ev):

    -8.1311  -8.0404  -8.0404  -7.9862  -7.9818  -4.6213   1.4628   3.6870
     5.7272   9.4969  12.0242  12.0444  12.3815

          k = 0.0000 0.4125 0.4125 (  1845 PWs)   bands (ev):

    -8.1253  -8.0433  -8.0419  -7.9866  -7.9815  -4.8111   1.7956   3.9684
     5.8896   9.4767  11.7608  11.7705  12.3637

          k = 0.0000 0.3750 0.3750 (  1835 PWs)   bands (ev):

    -8.1188  -8.0460  -8.0436  -7.9868  -7.9813  -4.9960   2.1610   4.2710
     6.0419   9.4170  11.4931  11.5396  12.3825

          k = 0.0000 0.3375 0.3375 (  1837 PWs)   bands (ev):

    -8.1119  -8.0487  -8.0455  -7.9867  -7.9815  -5.1721   2.5565   4.5892
     6.1813   9.3255  11.2514  11.3313  12.3936

          k = 0.0000 0.3000 0.3000 (  1829 PWs)   bands (ev):

    -8.1045  -8.0512  -8.0476  -7.9866  -7.9818  -5.3364   2.9800   4.9170
     6.3055   9.2096  11.0392  11.1456  12.3487

          k = 0.0000 0.2625 0.2625 (  1839 PWs)   bands (ev):

    -8.0969  -8.0536  -8.0500  -7.9862  -7.9822  -5.4864   3.4288   5.2473
     6.4128   9.0739  10.8585  10.9821  12.2045

          k = 0.0000 0.2250 0.2250 (  1839 PWs)   bands (ev):

    -8.0893  -8.0557  -8.0524  -7.9858  -7.9826  -5.6201   3.9003   5.5715
     6.5028   8.9181  10.7112  10.8406  11.9483

          k = 0.0000 0.1875 0.1875 (  1835 PWs)   bands (ev):

    -8.0820  -8.0575  -8.0548  -7.9854  -7.9830  -5.7359   4.3913   5.8791
     6.5757   8.7362  10.5985  10.7211  11.6108

          k = 0.0000 0.1500 0.1500 (  1841 PWs)   bands (ev):

    -8.0754  -8.0590  -8.0571  -7.9850  -7.9833  -5.8324   4.8976   6.1577
     6.6326   8.5162  10.5204  10.6233  11.2479

          k = 0.0000 0.1125 0.1125 (  1835 PWs)   bands (ev):

    -8.0698  -8.0603  -8.0591  -7.9845  -7.9836  -5.9086   5.4133   6.3938
     6.6748   8.2429  10.4745  10.5473  10.9166

          k = 0.0000 0.0750 0.0750 (  1825 PWs)   bands (ev):

    -8.0655  -8.0611  -8.0606  -7.9842  -7.9838  -5.9636   5.9283   6.5742
     6.7036   7.9073  10.4543  10.4930  10.6603

          k = 0.0000 0.0375 0.0375 (  1829 PWs)   bands (ev):

    -8.0628  -8.0617  -8.0616  -7.9840  -7.9839  -5.9968   6.4187   6.6873
     6.7203   7.5240  10.4495  10.4604  10.5023

          k = 0.0000 0.0000 0.0000 (  1837 PWs)   bands (ev):

    -8.0619  -8.0619  -8.0619  -7.9840  -7.9840  -6.0079   6.7258   6.7258
     6.7258   7.2519  10.4495  10.4495  10.4495

     Writing all to output data dir ./outputs/gaas.save/

     init_run     :      1.01s CPU      1.16s WALL (       1 calls)
     electrons    :     41.42s CPU     23.17s WALL (       1 calls)

     Called by init_run:
     wfcinit      :      0.00s CPU      0.00s WALL (       1 calls)
     wfcinit:atom :      0.05s CPU      0.12s WALL (     162 calls)
     wfcinit:wfcr :      1.48s CPU      1.94s WALL (     162 calls)
     potinit      :      0.35s CPU      0.39s WALL (       1 calls)
     hinit0       :      0.59s CPU      0.68s WALL (       1 calls)

     Called by electrons:
     c_bands      :     41.42s CPU     23.12s WALL (       1 calls)
     v_of_rho     :      0.03s CPU      0.03s WALL (       1 calls)
     v_h          :      0.00s CPU      0.00s WALL (       1 calls)
     v_xc         :      0.03s CPU      0.03s WALL (       1 calls)
     newd         :      0.04s CPU      0.05s WALL (       1 calls)
     PAW_pot      :      0.31s CPU      0.35s WALL (       1 calls)

     Called by c_bands:
     init_us_2    :      0.07s CPU      0.11s WALL (     162 calls)
     init_us_2:cp :      0.07s CPU      0.11s WALL (     162 calls)
     cegterg      :     39.55s CPU     33.52s WALL (     295 calls)

     Called by sum_band:

     Called by *egterg:
     cdiaghg      :      1.91s CPU      2.08s WALL (    4476 calls)
     cegterg:over :      2.80s CPU      3.22s WALL (    4314 calls)
     cegterg:upda :      1.99s CPU      2.18s WALL (    4314 calls)
     cegterg:last :      1.72s CPU      1.84s WALL (    1217 calls)
     h_psi        :     30.20s CPU     23.32s WALL (    4771 calls)
     s_psi        :      1.00s CPU      1.08s WALL (    4771 calls)
     g_psi        :      0.54s CPU      0.61s WALL (    4314 calls)

     Called by h_psi:
     h_psi:calbec :      1.28s CPU      1.42s WALL (    4771 calls)
     vloc_psi     :     27.76s CPU     20.64s WALL (    4771 calls)
     add_vuspsi   :      1.04s CPU      1.12s WALL (    4771 calls)

     General routines
     calbec       :      1.27s CPU      1.41s WALL (    4771 calls)
     fft          :      0.34s CPU      0.37s WALL (      21 calls)
     fftw         :     24.71s CPU     17.28s WALL (   91874 calls)
     davcio       :      0.04s CPU      0.06s WALL (     324 calls)

     Parallel routines

     PAW routines
     PAW_pot      :      0.31s CPU      0.35s WALL (       1 calls)

     PWSCF        :     42.99s CPU     25.16s WALL


   This run was terminated on:   6:15:30   3Jan2025            

=------------------------------------------------------------------------------=
   JOB DONE.
=------------------------------------------------------------------------------=
