
     Program PWSCF v.7.0 starts on  3Jan2025 at  6:24:38 

     This program is part of the open-source Quantum ESPRESSO suite
     for quantum simulation of materials; please cite
         "P. Giannozzi et al., J. Phys.:Condens. Matter 21 395502 (2009);
         "P. Giannozzi et al., J. Phys.:Condens. Matter 29 465901 (2017);
         "P. Giannozzi et al., J. Chem. Phys. 152 154105 (2020);
          URL http://www.quantum-espresso.org", 
     in publications or presentations arising from this work. More details at
     http://www.quantum-espresso.org/quote

     Parallel version (MPI & OpenMP), running on       2 processor cores
     Number of MPI processes:                 2
     Threads/MPI process:                     1

     MPI processes distributed on     1 nodes
     R & G space division:  proc/nbgrp/npool/nimage =       2
     330 MiB available memory on the printing compute node when the environment starts

     Reading input from pw.bands.w_soc.in

     Current dimensions of program PWSCF are:
     Max number of different atomic species (ntypx) = 10
     Max number of k-points (npk) =  40000
     Max angular momentum in pseudopotentials (lmaxx) =  4
     Message from routine volume:
     axis vectors are left-handed

     Atomic positions and unit cell read from directory:
     ./outputs/gaas.save/

     Message from routine volume:
     axis vectors are left-handed
     file Ga.rel-pbe-dn-kjpaw_psl.1.0.0.UPF: wavefunction(s)  4S renormalized

     IMPORTANT: XC functional enforced from input :
     Exchange-correlation= PBE
                           (   1   4   3   4   0   0   0)
     Any further DFT definition will be discarded
     Please, verify this is what you really want

     Message from routine setup:
     using ibrav=0 with symmetry is DISCOURAGED, use correct ibrav instead

     Subspace diagonalization in iterative solution of the eigenvalue problem:
     a serial algorithm will be used


     Parallelization info
     --------------------
     sticks:   dense  smooth     PW     G-vecs:    dense   smooth      PW
     Min         384     384    120                 7179     7179    1198
     Max         385     385    121                 7182     7182    1199
     Sum         769     769    241                14361    14361    2397

     Using Slab Decomposition



     bravais-lattice index     =            0
     lattice parameter (alat)  =      10.6839  a.u.
     unit-cell volume          =     304.8842 (a.u.)^3
     number of atoms/cell      =            2
     number of atomic types    =            2
     number of electrons       =        18.00
     number of Kohn-Sham states=           26
     kinetic-energy cutoff     =      50.0000  Ry
     charge density cutoff     =     200.0000  Ry
     Exchange-correlation= PBE
                           (   1   4   3   4   0   0   0)
     Non magnetic calculation with spin-orbit


     celldm(1)=  10.683945  celldm(2)=   0.000000  celldm(3)=   0.000000
     celldm(4)=   0.000000  celldm(5)=   0.000000  celldm(6)=   0.000000

     crystal axes: (cart. coord. in units of alat)
               a(1) = (   0.500000   0.500000   0.000000 )  
               a(2) = (   0.500000   0.000000   0.500000 )  
               a(3) = (   0.000000   0.500000   0.500000 )  

     reciprocal axes: (cart. coord. in units 2 pi/alat)
               b(1) = (  1.000000  1.000000 -1.000000 )  
               b(2) = (  1.000000 -1.000000  1.000000 )  
               b(3) = ( -1.000000  1.000000  1.000000 )  


     PseudoPot. # 1 for As read from file:
     ../Pseudopotentials/As.rel-pbe-n-kjpaw_psl.1.0.0.UPF
     MD5 check sum: 64fce746f52c6128fdf7901f08bfcabb
     Pseudo is Projector augmented-wave + core cor, Zval =  5.0
     Generated using &quot;atomic&quot; code by A. Dal Corso  v.6.3
     Shape of augmentation charge: PSQ
     Using radial grid of 1209 points,  6 beta functions with: 
                l(1) =   0
                l(2) =   0
                l(3) =   1
                l(4) =   1
                l(5) =   1
                l(6) =   1
     Q(r) pseudized with 0 coefficients 


     PseudoPot. # 2 for Ga read from file:
     ../Pseudopotentials/Ga.rel-pbe-dn-kjpaw_psl.1.0.0.UPF
     MD5 check sum: f57628226c2638e1c4b61aff16a21354
     Pseudo is Projector augmented-wave + core cor, Zval = 13.0
     Generated using &quot;atomic&quot; code by A. Dal Corso  v.6.3
     Shape of augmentation charge: PSQ
     Using radial grid of 1205 points, 10 beta functions with: 
                l(1) =   0
                l(2) =   0
                l(3) =   1
                l(4) =   1
                l(5) =   1
                l(6) =   1
                l(7) =   2
                l(8) =   2
                l(9) =   2
               l(10) =   2
     Q(r) pseudized with 0 coefficients 


     atomic species   valence    mass     pseudopotential
        As             5.00    74.92100     As( 1.00)
        Ga            13.00    69.72300     Ga( 1.00)

     24 Sym. Ops. (no inversion) found


                                    s                        frac. trans.

      isym =  1     identity                                     

 cryst.   s( 1) = (     1          0          0      )
                  (     0          1          0      )
                  (     0          0          1      )

 cart.    s( 1) = (  1.0000000  0.0000000  0.0000000 )
                  (  0.0000000  1.0000000  0.0000000 )
                  (  0.0000000  0.0000000  1.0000000 )


      isym =  2     180 deg rotation - cart. axis [0,0,1]        

 cryst.   s( 2) = (    -1          0          0      )
                  (    -1          0          1      )
                  (    -1          1          0      )

 cart.    s( 2) = ( -1.0000000  0.0000000  0.0000000 )
                  (  0.0000000 -1.0000000  0.0000000 )
                  (  0.0000000  0.0000000  1.0000000 )


      isym =  3     180 deg rotation - cart. axis [0,1,0]        

 cryst.   s( 3) = (     0         -1          1      )
                  (     0         -1          0      )
                  (     1         -1          0      )

 cart.    s( 3) = ( -1.0000000  0.0000000  0.0000000 )
                  (  0.0000000  1.0000000  0.0000000 )
                  (  0.0000000  0.0000000 -1.0000000 )


      isym =  4     180 deg rotation - cart. axis [1,0,0]        

 cryst.   s( 4) = (     0          1         -1      )
                  (     1          0         -1      )
                  (     0          0         -1      )

 cart.    s( 4) = (  1.0000000  0.0000000  0.0000000 )
                  (  0.0000000 -1.0000000  0.0000000 )
                  (  0.0000000  0.0000000 -1.0000000 )


      isym =  5     120 deg rotation - cart. axis [-1,-1,-1]     

 cryst.   s( 5) = (     0          1          0      )
                  (     0          0          1      )
                  (     1          0          0      )

 cart.    s( 5) = (  0.0000000  1.0000000  0.0000000 )
                  (  0.0000000  0.0000000  1.0000000 )
                  (  1.0000000  0.0000000  0.0000000 )


      isym =  6     120 deg rotation - cart. axis [-1,1,1]       

 cryst.   s( 6) = (     0         -1          0      )
                  (     1         -1          0      )
                  (     0         -1          1      )

 cart.    s( 6) = (  0.0000000 -1.0000000  0.0000000 )
                  (  0.0000000  0.0000000  1.0000000 )
                  ( -1.0000000  0.0000000  0.0000000 )


      isym =  7     120 deg rotation - cart. axis [1,1,-1]       

 cryst.   s( 7) = (     1          0         -1      )
                  (     0          0         -1      )
                  (     0          1         -1      )

 cart.    s( 7) = (  0.0000000  1.0000000  0.0000000 )
                  (  0.0000000  0.0000000 -1.0000000 )
                  ( -1.0000000  0.0000000  0.0000000 )


      isym =  8     120 deg rotation - cart. axis [1,-1,1]       

 cryst.   s( 8) = (    -1          0          1      )
                  (    -1          1          0      )
                  (    -1          0          0      )

 cart.    s( 8) = (  0.0000000 -1.0000000  0.0000000 )
                  (  0.0000000  0.0000000 -1.0000000 )
                  (  1.0000000  0.0000000  0.0000000 )


      isym =  9     120 deg rotation - cart. axis [1,1,1]        

 cryst.   s( 9) = (     0          0          1      )
                  (     1          0          0      )
                  (     0          1          0      )

 cart.    s( 9) = (  0.0000000  0.0000000  1.0000000 )
                  (  1.0000000  0.0000000  0.0000000 )
                  (  0.0000000  1.0000000  0.0000000 )


      isym = 10     120 deg rotation - cart. axis [-1,1,-1]      

 cryst.   s(10) = (     0          0         -1      )
                  (     0          1         -1      )
                  (     1          0         -1      )

 cart.    s(10) = (  0.0000000  0.0000000  1.0000000 )
                  ( -1.0000000  0.0000000  0.0000000 )
                  (  0.0000000 -1.0000000  0.0000000 )


      isym = 11     120 deg rotation - cart. axis [1,-1,-1]      

 cryst.   s(11) = (    -1          1          0      )
                  (    -1          0          0      )
                  (    -1          0          1      )

 cart.    s(11) = (  0.0000000  0.0000000 -1.0000000 )
                  ( -1.0000000  0.0000000  0.0000000 )
                  (  0.0000000  1.0000000  0.0000000 )


      isym = 12     120 deg rotation - cart. axis [-1,-1,1]      

 cryst.   s(12) = (     1         -1          0      )
                  (     0         -1          1      )
                  (     0         -1          0      )

 cart.    s(12) = (  0.0000000  0.0000000 -1.0000000 )
                  (  1.0000000  0.0000000  0.0000000 )
                  (  0.0000000 -1.0000000  0.0000000 )


      isym = 13     inv. 180 deg rotation - cart. axis [1,1,0]   

 cryst.   s(13) = (    -1          0          0      )
                  (    -1          1          0      )
                  (    -1          0          1      )

 cart.    s(13) = (  0.0000000 -1.0000000  0.0000000 )
                  ( -1.0000000  0.0000000  0.0000000 )
                  (  0.0000000  0.0000000  1.0000000 )


      isym = 14     inv. 180 deg rotation - cart. axis [1,-1,0]  

 cryst.   s(14) = (     1          0          0      )
                  (     0          0          1      )
                  (     0          1          0      )

 cart.    s(14) = (  0.0000000  1.0000000  0.0000000 )
                  (  1.0000000  0.0000000  0.0000000 )
                  (  0.0000000  0.0000000  1.0000000 )


      isym = 15     inv.  90 deg rotation - cart. axis [0,0,-1]  

 cryst.   s(15) = (     0         -1          1      )
                  (     1         -1          0      )
                  (     0         -1          0      )

 cart.    s(15) = (  0.0000000 -1.0000000  0.0000000 )
                  (  1.0000000  0.0000000  0.0000000 )
                  (  0.0000000  0.0000000 -1.0000000 )


      isym = 16     inv.  90 deg rotation - cart. axis [0,0,1]   

 cryst.   s(16) = (     0          1         -1      )
                  (     0          0         -1      )
                  (     1          0         -1      )

 cart.    s(16) = (  0.0000000  1.0000000  0.0000000 )
                  ( -1.0000000  0.0000000  0.0000000 )
                  (  0.0000000  0.0000000 -1.0000000 )


      isym = 17     inv. 180 deg rotation - cart. axis [1,0,1]   

 cryst.   s(17) = (     1         -1          0      )
                  (     0         -1          0      )
                  (     0         -1          1      )

 cart.    s(17) = (  0.0000000  0.0000000 -1.0000000 )
                  (  0.0000000  1.0000000  0.0000000 )
                  ( -1.0000000  0.0000000  0.0000000 )


      isym = 18     inv. 180 deg rotation - cart. axis [-1,0,1]  

 cryst.   s(18) = (     0          0          1      )
                  (     0          1          0      )
                  (     1          0          0      )

 cart.    s(18) = (  0.0000000  0.0000000  1.0000000 )
                  (  0.0000000  1.0000000  0.0000000 )
                  (  1.0000000  0.0000000  0.0000000 )


      isym = 19     inv.  90 deg rotation - cart. axis [0,1,0]   

 cryst.   s(19) = (    -1          1          0      )
                  (    -1          0          1      )
                  (    -1          0          0      )

 cart.    s(19) = (  0.0000000  0.0000000 -1.0000000 )
                  (  0.0000000 -1.0000000  0.0000000 )
                  (  1.0000000  0.0000000  0.0000000 )


      isym = 20     inv.  90 deg rotation - cart. axis [0,-1,0]  

 cryst.   s(20) = (     0          0         -1      )
                  (     1          0         -1      )
                  (     0          1         -1      )

 cart.    s(20) = (  0.0000000  0.0000000  1.0000000 )
                  (  0.0000000 -1.0000000  0.0000000 )
                  ( -1.0000000  0.0000000  0.0000000 )


      isym = 21     inv. 180 deg rotation - cart. axis [0,1,1]   

 cryst.   s(21) = (     1          0         -1      )
                  (     0          1         -1      )
                  (     0          0         -1      )

 cart.    s(21) = (  1.0000000  0.0000000  0.0000000 )
                  (  0.0000000  0.0000000 -1.0000000 )
                  (  0.0000000 -1.0000000  0.0000000 )


      isym = 22     inv. 180 deg rotation - cart. axis [0,1,-1]  

 cryst.   s(22) = (     0          1          0      )
                  (     1          0          0      )
                  (     0          0          1      )

 cart.    s(22) = (  1.0000000  0.0000000  0.0000000 )
                  (  0.0000000  0.0000000  1.0000000 )
                  (  0.0000000  1.0000000  0.0000000 )


      isym = 23     inv.  90 deg rotation - cart. axis [-1,0,0]  

 cryst.   s(23) = (    -1          0          1      )
                  (    -1          0          0      )
                  (    -1          1          0      )

 cart.    s(23) = ( -1.0000000  0.0000000  0.0000000 )
                  (  0.0000000  0.0000000 -1.0000000 )
                  (  0.0000000  1.0000000  0.0000000 )


      isym = 24     inv.  90 deg rotation - cart. axis [1,0,0]   

 cryst.   s(24) = (     0         -1          0      )
                  (     0         -1          1      )
                  (     1         -1          0      )

 cart.    s(24) = ( -1.0000000  0.0000000  0.0000000 )
                  (  0.0000000  0.0000000  1.0000000 )
                  (  0.0000000 -1.0000000  0.0000000 )


   Cartesian axes

     site n.     atom                  positions (alat units)
         1           As  tau(   1) = (   0.2500000   0.2500000   0.2500000  )
         2           Ga  tau(   2) = (   0.0000000   0.0000000   0.0000000  )

   Crystallographic axes

     site n.     atom                  positions (cryst. coord.)
         1           As  tau(   1) = (  0.2500000  0.2500000  0.2500000  )
         2           Ga  tau(   2) = (  0.0000000  0.0000000  0.0000000  )

     number of k points=    81  Marzari-Vanderbilt smearing, width (Ry)=  0.0050
                       cart. coord. in units 2pi/alat
        k(    1) = (   0.5000000   0.5000000   0.5000000), wk =   0.0123457
        k(    2) = (   0.4750000   0.4750000   0.4750000), wk =   0.0123457
        k(    3) = (   0.4500000   0.4500000   0.4500000), wk =   0.0123457
        k(    4) = (   0.4250000   0.4250000   0.4250000), wk =   0.0123457
        k(    5) = (   0.4000000   0.4000000   0.4000000), wk =   0.0123457
        k(    6) = (   0.3750000   0.3750000   0.3750000), wk =   0.0123457
        k(    7) = (   0.3500000   0.3500000   0.3500000), wk =   0.0123457
        k(    8) = (   0.3250000   0.3250000   0.3250000), wk =   0.0123457
        k(    9) = (   0.3000000   0.3000000   0.3000000), wk =   0.0123457
        k(   10) = (   0.2750000   0.2750000   0.2750000), wk =   0.0123457
        k(   11) = (   0.2500000   0.2500000   0.2500000), wk =   0.0123457
        k(   12) = (   0.2250000   0.2250000   0.2250000), wk =   0.0123457
        k(   13) = (   0.2000000   0.2000000   0.2000000), wk =   0.0123457
        k(   14) = (   0.1750000   0.1750000   0.1750000), wk =   0.0123457
        k(   15) = (   0.1500000   0.1500000   0.1500000), wk =   0.0123457
        k(   16) = (   0.1250000   0.1250000   0.1250000), wk =   0.0123457
        k(   17) = (   0.1000000   0.1000000   0.1000000), wk =   0.0123457
        k(   18) = (   0.0750000   0.0750000   0.0750000), wk =   0.0123457
        k(   19) = (   0.0500000   0.0500000   0.0500000), wk =   0.0123457
        k(   20) = (   0.0250000   0.0250000   0.0250000), wk =   0.0123457
        k(   21) = (   0.0000000   0.0000000   0.0000000), wk =   0.0123457
        k(   22) = (   0.0000000   0.0500000   0.0000000), wk =   0.0123457
        k(   23) = (   0.0000000   0.1000000   0.0000000), wk =   0.0123457
        k(   24) = (   0.0000000   0.1500000   0.0000000), wk =   0.0123457
        k(   25) = (   0.0000000   0.2000000   0.0000000), wk =   0.0123457
        k(   26) = (   0.0000000   0.2500000   0.0000000), wk =   0.0123457
        k(   27) = (   0.0000000   0.3000000   0.0000000), wk =   0.0123457
        k(   28) = (   0.0000000   0.3500000   0.0000000), wk =   0.0123457
        k(   29) = (   0.0000000   0.4000000   0.0000000), wk =   0.0123457
        k(   30) = (   0.0000000   0.4500000   0.0000000), wk =   0.0123457
        k(   31) = (   0.0000000   0.5000000   0.0000000), wk =   0.0123457
        k(   32) = (   0.0000000   0.5500000   0.0000000), wk =   0.0123457
        k(   33) = (   0.0000000   0.6000000   0.0000000), wk =   0.0123457
        k(   34) = (   0.0000000   0.6500000   0.0000000), wk =   0.0123457
        k(   35) = (   0.0000000   0.7000000   0.0000000), wk =   0.0123457
        k(   36) = (   0.0000000   0.7500000   0.0000000), wk =   0.0123457
        k(   37) = (   0.0000000   0.8000000   0.0000000), wk =   0.0123457
        k(   38) = (   0.0000000   0.8500000   0.0000000), wk =   0.0123457
        k(   39) = (   0.0000000   0.9000000   0.0000000), wk =   0.0123457
        k(   40) = (   0.0000000   0.9500000   0.0000000), wk =   0.0123457
        k(   41) = (   0.0000000   1.0000000   0.0000000), wk =   0.0123457
        k(   42) = (   0.0000000   0.9875000   0.0375000), wk =   0.0123457
        k(   43) = (   0.0000000   0.9750000   0.0750000), wk =   0.0123457
        k(   44) = (   0.0000000   0.9625000   0.1125000), wk =   0.0123457
        k(   45) = (   0.0000000   0.9500000   0.1500000), wk =   0.0123457
        k(   46) = (   0.0000000   0.9375000   0.1875000), wk =   0.0123457
        k(   47) = (   0.0000000   0.9250000   0.2250000), wk =   0.0123457
        k(   48) = (   0.0000000   0.9125000   0.2625000), wk =   0.0123457
        k(   49) = (   0.0000000   0.9000000   0.3000000), wk =   0.0123457
        k(   50) = (   0.0000000   0.8875000   0.3375000), wk =   0.0123457
        k(   51) = (   0.0000000   0.8750000   0.3750000), wk =   0.0123457
        k(   52) = (   0.0000000   0.8625000   0.4125000), wk =   0.0123457
        k(   53) = (   0.0000000   0.8500000   0.4500000), wk =   0.0123457
        k(   54) = (   0.0000000   0.8375000   0.4875000), wk =   0.0123457
        k(   55) = (   0.0000000   0.8250000   0.5250000), wk =   0.0123457
        k(   56) = (   0.0000000   0.8125000   0.5625000), wk =   0.0123457
        k(   57) = (   0.0000000   0.8000000   0.6000000), wk =   0.0123457
        k(   58) = (   0.0000000   0.7875000   0.6375000), wk =   0.0123457
        k(   59) = (   0.0000000   0.7750000   0.6750000), wk =   0.0123457
        k(   60) = (   0.0000000   0.7625000   0.7125000), wk =   0.0123457
        k(   61) = (   0.0000000   0.7500000   0.7500000), wk =   0.0123457
        k(   62) = (   0.0000000   0.7125000   0.7125000), wk =   0.0123457
        k(   63) = (   0.0000000   0.6750000   0.6750000), wk =   0.0123457
        k(   64) = (   0.0000000   0.6375000   0.6375000), wk =   0.0123457
        k(   65) = (   0.0000000   0.6000000   0.6000000), wk =   0.0123457
        k(   66) = (   0.0000000   0.5625000   0.5625000), wk =   0.0123457
        k(   67) = (   0.0000000   0.5250000   0.5250000), wk =   0.0123457
        k(   68) = (   0.0000000   0.4875000   0.4875000), wk =   0.0123457
        k(   69) = (   0.0000000   0.4500000   0.4500000), wk =   0.0123457
        k(   70) = (   0.0000000   0.4125000   0.4125000), wk =   0.0123457
        k(   71) = (   0.0000000   0.3750000   0.3750000), wk =   0.0123457
        k(   72) = (   0.0000000   0.3375000   0.3375000), wk =   0.0123457
        k(   73) = (   0.0000000   0.3000000   0.3000000), wk =   0.0123457
        k(   74) = (   0.0000000   0.2625000   0.2625000), wk =   0.0123457
        k(   75) = (   0.0000000   0.2250000   0.2250000), wk =   0.0123457
        k(   76) = (   0.0000000   0.1875000   0.1875000), wk =   0.0123457
        k(   77) = (   0.0000000   0.1500000   0.1500000), wk =   0.0123457
        k(   78) = (   0.0000000   0.1125000   0.1125000), wk =   0.0123457
        k(   79) = (   0.0000000   0.0750000   0.0750000), wk =   0.0123457
        k(   80) = (   0.0000000   0.0375000   0.0375000), wk =   0.0123457
        k(   81) = (   0.0000000   0.0000000   0.0000000), wk =   0.0123457

                       cryst. coord.
        k(    1) = (   0.5000000   0.5000000   0.5000000), wk =   0.0123457
        k(    2) = (   0.4750000   0.4750000   0.4750000), wk =   0.0123457
        k(    3) = (   0.4500000   0.4500000   0.4500000), wk =   0.0123457
        k(    4) = (   0.4250000   0.4250000   0.4250000), wk =   0.0123457
        k(    5) = (   0.4000000   0.4000000   0.4000000), wk =   0.0123457
        k(    6) = (   0.3750000   0.3750000   0.3750000), wk =   0.0123457
        k(    7) = (   0.3500000   0.3500000   0.3500000), wk =   0.0123457
        k(    8) = (   0.3250000   0.3250000   0.3250000), wk =   0.0123457
        k(    9) = (   0.3000000   0.3000000   0.3000000), wk =   0.0123457
        k(   10) = (   0.2750000   0.2750000   0.2750000), wk =   0.0123457
        k(   11) = (   0.2500000   0.2500000   0.2500000), wk =   0.0123457
        k(   12) = (   0.2250000   0.2250000   0.2250000), wk =   0.0123457
        k(   13) = (   0.2000000   0.2000000   0.2000000), wk =   0.0123457
        k(   14) = (   0.1750000   0.1750000   0.1750000), wk =   0.0123457
        k(   15) = (   0.1500000   0.1500000   0.1500000), wk =   0.0123457
        k(   16) = (   0.1250000   0.1250000   0.1250000), wk =   0.0123457
        k(   17) = (   0.1000000   0.1000000   0.1000000), wk =   0.0123457
        k(   18) = (   0.0750000   0.0750000   0.0750000), wk =   0.0123457
        k(   19) = (   0.0500000   0.0500000   0.0500000), wk =   0.0123457
        k(   20) = (   0.0250000   0.0250000   0.0250000), wk =   0.0123457
        k(   21) = (   0.0000000   0.0000000   0.0000000), wk =   0.0123457
        k(   22) = (   0.0250000   0.0000000   0.0250000), wk =   0.0123457
        k(   23) = (   0.0500000   0.0000000   0.0500000), wk =   0.0123457
        k(   24) = (   0.0750000   0.0000000   0.0750000), wk =   0.0123457
        k(   25) = (   0.1000000   0.0000000   0.1000000), wk =   0.0123457
        k(   26) = (   0.1250000   0.0000000   0.1250000), wk =   0.0123457
        k(   27) = (   0.1500000   0.0000000   0.1500000), wk =   0.0123457
        k(   28) = (   0.1750000   0.0000000   0.1750000), wk =   0.0123457
        k(   29) = (   0.2000000   0.0000000   0.2000000), wk =   0.0123457
        k(   30) = (   0.2250000   0.0000000   0.2250000), wk =   0.0123457
        k(   31) = (   0.2500000   0.0000000   0.2500000), wk =   0.0123457
        k(   32) = (   0.2750000   0.0000000   0.2750000), wk =   0.0123457
        k(   33) = (   0.3000000   0.0000000   0.3000000), wk =   0.0123457
        k(   34) = (   0.3250000   0.0000000   0.3250000), wk =   0.0123457
        k(   35) = (   0.3500000   0.0000000   0.3500000), wk =   0.0123457
        k(   36) = (   0.3750000   0.0000000   0.3750000), wk =   0.0123457
        k(   37) = (   0.4000000   0.0000000   0.4000000), wk =   0.0123457
        k(   38) = (   0.4250000   0.0000000   0.4250000), wk =   0.0123457
        k(   39) = (   0.4500000   0.0000000   0.4500000), wk =   0.0123457
        k(   40) = (   0.4750000   0.0000000   0.4750000), wk =   0.0123457
        k(   41) = (   0.5000000   0.0000000   0.5000000), wk =   0.0123457
        k(   42) = (   0.4937500   0.0187500   0.5125000), wk =   0.0123457
        k(   43) = (   0.4875000   0.0375000   0.5250000), wk =   0.0123457
        k(   44) = (   0.4812500   0.0562500   0.5375000), wk =   0.0123457
        k(   45) = (   0.4750000   0.0750000   0.5500000), wk =   0.0123457
        k(   46) = (   0.4687500   0.0937500   0.5625000), wk =   0.0123457
        k(   47) = (   0.4625000   0.1125000   0.5750000), wk =   0.0123457
        k(   48) = (   0.4562500   0.1312500   0.5875000), wk =   0.0123457
        k(   49) = (   0.4500000   0.1500000   0.6000000), wk =   0.0123457
        k(   50) = (   0.4437500   0.1687500   0.6125000), wk =   0.0123457
        k(   51) = (   0.4375000   0.1875000   0.6250000), wk =   0.0123457
        k(   52) = (   0.4312500   0.2062500   0.6375000), wk =   0.0123457
        k(   53) = (   0.4250000   0.2250000   0.6500000), wk =   0.0123457
        k(   54) = (   0.4187500   0.2437500   0.6625000), wk =   0.0123457
        k(   55) = (   0.4125000   0.2625000   0.6750000), wk =   0.0123457
        k(   56) = (   0.4062500   0.2812500   0.6875000), wk =   0.0123457
        k(   57) = (   0.4000000   0.3000000   0.7000000), wk =   0.0123457
        k(   58) = (   0.3937500   0.3187500   0.7125000), wk =   0.0123457
        k(   59) = (   0.3875000   0.3375000   0.7250000), wk =   0.0123457
        k(   60) = (   0.3812500   0.3562500   0.7375000), wk =   0.0123457
        k(   61) = (   0.3750000   0.3750000   0.7500000), wk =   0.0123457
        k(   62) = (   0.3562500   0.3562500   0.7125000), wk =   0.0123457
        k(   63) = (   0.3375000   0.3375000   0.6750000), wk =   0.0123457
        k(   64) = (   0.3187500   0.3187500   0.6375000), wk =   0.0123457
        k(   65) = (   0.3000000   0.3000000   0.6000000), wk =   0.0123457
        k(   66) = (   0.2812500   0.2812500   0.5625000), wk =   0.0123457
        k(   67) = (   0.2625000   0.2625000   0.5250000), wk =   0.0123457
        k(   68) = (   0.2437500   0.2437500   0.4875000), wk =   0.0123457
        k(   69) = (   0.2250000   0.2250000   0.4500000), wk =   0.0123457
        k(   70) = (   0.2062500   0.2062500   0.4125000), wk =   0.0123457
        k(   71) = (   0.1875000   0.1875000   0.3750000), wk =   0.0123457
        k(   72) = (   0.1687500   0.1687500   0.3375000), wk =   0.0123457
        k(   73) = (   0.1500000   0.1500000   0.3000000), wk =   0.0123457
        k(   74) = (   0.1312500   0.1312500   0.2625000), wk =   0.0123457
        k(   75) = (   0.1125000   0.1125000   0.2250000), wk =   0.0123457
        k(   76) = (   0.0937500   0.0937500   0.1875000), wk =   0.0123457
        k(   77) = (   0.0750000   0.0750000   0.1500000), wk =   0.0123457
        k(   78) = (   0.0562500   0.0562500   0.1125000), wk =   0.0123457
        k(   79) = (   0.0375000   0.0375000   0.0750000), wk =   0.0123457
        k(   80) = (   0.0187500   0.0187500   0.0375000), wk =   0.0123457
        k(   81) = (   0.0000000   0.0000000   0.0000000), wk =   0.0123457

     Dense  grid:    14361 G-vectors     FFT dimensions: (  36,  36,  36)

     Dynamical RAM for                 wfc:       0.72 MB

     Dynamical RAM for     wfc (w. buffer):       0.72 MB

     Dynamical RAM for           str. fact:       0.22 MB

     Dynamical RAM for           local pot:       0.00 MB

     Dynamical RAM for          nlocal pot:       0.67 MB

     Dynamical RAM for                qrad:       5.95 MB

     Dynamical RAM for          rho,v,vnew:       3.45 MB

     Dynamical RAM for           G-vectors:       0.47 MB

     Dynamical RAM for          h,s,v(r/c):       0.50 MB

     Dynamical RAM for          <psi|beta>:       0.04 MB

     Dynamical RAM for                 psi:       2.89 MB

     Dynamical RAM for                hpsi:       2.89 MB

     Dynamical RAM for                spsi:       2.89 MB

     Dynamical RAM for      wfcinit/wfcrot:       1.10 MB

     Dynamical RAM for           addusdens:      66.96 MB

     Estimated static dynamical RAM per process >      13.23 MB

     Estimated max dynamical RAM per process >      80.19 MB

     Estimated total dynamical RAM >     160.37 MB

     Check: negative core charge=   -0.000002

     The potential is recalculated from file :
     ./outputs/gaas.save/charge-density

     Starting wfcs are   26 randomized atomic wfcs
     Checking if some PAW data can be deallocated... 
       PAW data deallocated on    1 nodes for type:  1
       PAW data deallocated on    1 nodes for type:  2

     Band Structure Calculation
     Davidson diagonalization with overlap

     Computing kpt #:     1  of    81
     total cpu time spent up to now is        3.5 secs

     Computing kpt #:     2  of    81
     total cpu time spent up to now is        4.9 secs

     Computing kpt #:     3  of    81
     total cpu time spent up to now is        6.3 secs

     Computing kpt #:     4  of    81
     total cpu time spent up to now is        7.6 secs

     Computing kpt #:     5  of    81
     total cpu time spent up to now is        9.0 secs

     Computing kpt #:     6  of    81
     total cpu time spent up to now is       10.4 secs

     Computing kpt #:     7  of    81
     total cpu time spent up to now is       11.7 secs

     Computing kpt #:     8  of    81
     total cpu time spent up to now is       13.0 secs

     Computing kpt #:     9  of    81
     total cpu time spent up to now is       14.3 secs

     Computing kpt #:    10  of    81
     total cpu time spent up to now is       15.6 secs

     Computing kpt #:    11  of    81
     total cpu time spent up to now is        5.1 secs

     Computing kpt #:    12  of    81
     total cpu time spent up to now is        6.4 secs

     Computing kpt #:    13  of    81
     total cpu time spent up to now is        7.6 secs

     Computing kpt #:    14  of    81
     total cpu time spent up to now is        8.8 secs

     Computing kpt #:    15  of    81
     total cpu time spent up to now is       10.0 secs

     Computing kpt #:    16  of    81
     total cpu time spent up to now is       11.3 secs

     Computing kpt #:    17  of    81
     total cpu time spent up to now is       12.3 secs

     Computing kpt #:    18  of    81
     total cpu time spent up to now is       13.3 secs

     Computing kpt #:    19  of    81
     total cpu time spent up to now is       14.4 secs

     Computing kpt #:    20  of    81
     total cpu time spent up to now is       15.4 secs

     Computing kpt #:    21  of    81
     total cpu time spent up to now is       16.3 secs

     Computing kpt #:    22  of    81
     total cpu time spent up to now is       17.4 secs

     Computing kpt #:    23  of    81
     total cpu time spent up to now is       18.5 secs

     Computing kpt #:    24  of    81
     total cpu time spent up to now is       19.5 secs

     Computing kpt #:    25  of    81
     total cpu time spent up to now is       20.5 secs

     Computing kpt #:    26  of    81
     total cpu time spent up to now is       21.6 secs

     Computing kpt #:    27  of    81
     total cpu time spent up to now is       22.8 secs

     Computing kpt #:    28  of    81
     total cpu time spent up to now is       24.0 secs

     Computing kpt #:    29  of    81
     total cpu time spent up to now is       25.3 secs

     Computing kpt #:    30  of    81
     total cpu time spent up to now is       11.5 secs

     Computing kpt #:    31  of    81
     total cpu time spent up to now is       12.9 secs

     Computing kpt #:    32  of    81
     total cpu time spent up to now is       14.3 secs

     Computing kpt #:    33  of    81
     total cpu time spent up to now is       15.7 secs

     Computing kpt #:    34  of    81
     total cpu time spent up to now is       17.2 secs

     Computing kpt #:    35  of    81
     total cpu time spent up to now is       18.6 secs

     Computing kpt #:    36  of    81
     total cpu time spent up to now is       20.1 secs

     Computing kpt #:    37  of    81
     total cpu time spent up to now is       21.6 secs

     Computing kpt #:    38  of    81
     total cpu time spent up to now is       23.1 secs

     Computing kpt #:    39  of    81
     total cpu time spent up to now is       24.6 secs

     Computing kpt #:    40  of    81
     total cpu time spent up to now is       26.1 secs

     Computing kpt #:    41  of    81
     total cpu time spent up to now is       27.7 secs

     Computing kpt #:    42  of    81
     total cpu time spent up to now is       29.2 secs

     Computing kpt #:    43  of    81
     total cpu time spent up to now is       15.5 secs

     Computing kpt #:    44  of    81
     total cpu time spent up to now is       17.0 secs

     Computing kpt #:    45  of    81
     total cpu time spent up to now is       18.5 secs

     Computing kpt #:    46  of    81
     total cpu time spent up to now is       19.9 secs

     Computing kpt #:    47  of    81
     total cpu time spent up to now is       21.5 secs

     Computing kpt #:    48  of    81
     total cpu time spent up to now is       22.9 secs

     Computing kpt #:    49  of    81
     total cpu time spent up to now is       24.3 secs

     Computing kpt #:    50  of    81
     total cpu time spent up to now is       25.6 secs

     Computing kpt #:    51  of    81
     total cpu time spent up to now is       27.0 secs

     Computing kpt #:    52  of    81
     total cpu time spent up to now is       28.4 secs

     Computing kpt #:    53  of    81
     total cpu time spent up to now is       29.7 secs

     Computing kpt #:    54  of    81
     total cpu time spent up to now is       31.1 secs

     Computing kpt #:    55  of    81
     total cpu time spent up to now is       32.5 secs

     Computing kpt #:    56  of    81
     total cpu time spent up to now is       33.9 secs

     Computing kpt #:    57  of    81
     total cpu time spent up to now is       80.4 secs

     Computing kpt #:    58  of    81
     total cpu time spent up to now is       81.9 secs

     Computing kpt #:    59  of    81
     total cpu time spent up to now is       83.3 secs

     Computing kpt #:    60  of    81
     total cpu time spent up to now is       84.9 secs

     Computing kpt #:    61  of    81
     total cpu time spent up to now is       86.3 secs

     Computing kpt #:    62  of    81
     total cpu time spent up to now is       88.3 secs

     Computing kpt #:    63  of    81
     total cpu time spent up to now is       90.0 secs

     Computing kpt #:    64  of    81
     total cpu time spent up to now is       91.5 secs

     Computing kpt #:    65  of    81
     total cpu time spent up to now is       92.8 secs

     Computing kpt #:    66  of    81
     total cpu time spent up to now is       94.2 secs

     Computing kpt #:    67  of    81
     total cpu time spent up to now is       95.5 secs

     Computing kpt #:    68  of    81
     total cpu time spent up to now is       96.9 secs

     Computing kpt #:    69  of    81
     total cpu time spent up to now is       98.3 secs

     Computing kpt #:    70  of    81
     total cpu time spent up to now is       99.6 secs

     Computing kpt #:    71  of    81
     total cpu time spent up to now is       84.0 secs

     Computing kpt #:    72  of    81
     total cpu time spent up to now is       85.4 secs

     Computing kpt #:    73  of    81
     total cpu time spent up to now is       86.7 secs

     Computing kpt #:    74  of    81
     total cpu time spent up to now is       87.9 secs

     Computing kpt #:    75  of    81
     total cpu time spent up to now is       89.1 secs

     Computing kpt #:    76  of    81
     total cpu time spent up to now is       90.3 secs

     Computing kpt #:    77  of    81
     total cpu time spent up to now is       91.4 secs

     Computing kpt #:    78  of    81
     total cpu time spent up to now is       92.4 secs

     Computing kpt #:    79  of    81
     total cpu time spent up to now is       93.4 secs

     Computing kpt #:    80  of    81
     total cpu time spent up to now is       94.5 secs

     Computing kpt #:    81  of    81
     total cpu time spent up to now is       95.5 secs

     ethr =  5.56E-11,  avg # of iterations = 27.4

     total cpu time spent up to now is       95.5 secs

     End of band structure calculation

          k = 0.5000 0.5000 0.5000 (  1802 PWs)   bands (ev):

    -8.3257  -8.3257  -8.2970  -8.2970  -7.8868  -7.8868  -7.8463  -7.8463
    -7.8046  -7.8046  -4.2396  -4.2396   0.0786   0.0786   5.4772   5.4772
     5.6838   5.6838   7.7234   7.7234  11.3133  11.3133  11.4057  11.4057
    14.5408  14.5408

          k = 0.4750 0.4750 0.4750 (  1826 PWs)   bands (ev):

    -8.3256  -8.3256  -8.2975  -8.2966  -7.8869  -7.8869  -7.8462  -7.8462
    -7.8053  -7.8042  -4.2581  -4.2581   0.1118   0.1118   5.4821   5.4821
     5.6885   5.6890   7.7285   7.7285  11.3158  11.3158  11.4086  11.4089
    14.5427  14.5427

          k = 0.4500 0.4500 0.4500 (  1823 PWs)   bands (ev):

    -8.3251  -8.3251  -8.2980  -8.2962  -7.8868  -7.8868  -7.8460  -7.8460
    -7.8062  -7.8041  -4.3120  -4.3120   0.2096   0.2096   5.4969   5.4969
     5.7031   5.7042   7.7438   7.7438  11.3234  11.3234  11.4174  11.4180
    14.5459  14.5459

          k = 0.4250 0.4250 0.4250 (  1838 PWs)   bands (ev):

    -8.3243  -8.3243  -8.2986  -8.2959  -7.8867  -7.8867  -7.8455  -7.8455
    -7.8073  -7.8042  -4.3963  -4.3963   0.3668   0.3668   5.5215   5.5215
     5.7276   5.7291   7.7690   7.7690  11.3348  11.3348  11.4309  11.4317
    14.5413  14.5413

          k = 0.4000 0.4000 0.4000 (  1832 PWs)   bands (ev):

    -8.3233  -8.3233  -8.2992  -8.2956  -7.8865  -7.8865  -7.8448  -7.8448
    -7.8086  -7.8046  -4.5042  -4.5042   0.5767   0.5767   5.5557   5.5557
     5.7618   5.7638   7.8040   7.8040  11.3479  11.3479  11.4470  11.4482
    14.5081  14.5081

          k = 0.3750 0.3750 0.3750 (  1838 PWs)   bands (ev):

    -8.3220  -8.3220  -8.2998  -8.2955  -7.8863  -7.8863  -7.8440  -7.8440
    -7.8100  -7.8052  -4.6289  -4.6289   0.8320   0.8320   5.5992   5.5992
     5.8054   5.8078   7.8484   7.8484  11.3598  11.3598  11.4628  11.4644
    14.4078  14.4078

          k = 0.3500 0.3500 0.3500 (  1844 PWs)   bands (ev):

    -8.3206  -8.3206  -8.3004  -8.2955  -7.8859  -7.8859  -7.8430  -7.8430
    -7.8116  -7.8061  -4.7637  -4.7637   1.1257   1.1257   5.6516   5.6516
     5.8580   5.8608   7.9017   7.9017  11.3669  11.3669  11.4746  11.4765
    14.1999  14.1999

          k = 0.3250 0.3250 0.3250 (  1853 PWs)   bands (ev):

    -8.3189  -8.3189  -8.3009  -8.2955  -7.8855  -7.8855  -7.8418  -7.8418
    -7.8132  -7.8072  -4.9034  -4.9034   1.4520   1.4520   5.7125   5.7125
     5.9193   5.9224   7.9628   7.9628  11.3649  11.3649  11.4777  11.4800
    13.8876  13.8876

          k = 0.3000 0.3000 0.3000 (  1841 PWs)   bands (ev):

    -8.3172  -8.3172  -8.3014  -8.2956  -7.8850  -7.8850  -7.8405  -7.8405
    -7.8149  -7.8084  -5.0435  -5.0435   1.8060   1.8060   5.7813   5.7813
     5.9885   5.9919   8.0306   8.0306  11.3490  11.3490  11.4674  11.4699
    13.5125  13.5125

          k = 0.2750 0.2750 0.2750 (  1835 PWs)   bands (ev):

    -8.3153  -8.3153  -8.3019  -8.2959  -7.8843  -7.8843  -7.8390  -7.8390
    -7.8165  -7.8097  -5.1805  -5.1805   2.1834   2.1834   5.8571   5.8571
     6.0650   6.0685   8.1031   8.1031  11.3150  11.3150  11.4387  11.4415
    13.1098  13.1098

          k = 0.2500 0.2500 0.2500 (  1829 PWs)   bands (ev):

    -8.3134  -8.3134  -8.3023  -8.2962  -7.8836  -7.8836  -7.8373  -7.8373
    -7.8181  -7.8112  -5.3117  -5.3117   2.5806   2.5806   5.9389   5.9389
     6.1476   6.1513   8.1775   8.1775  11.2600  11.2600  11.3884  11.3912
    12.6996  12.6996

          k = 0.2250 0.2250 0.2250 (  1832 PWs)   bands (ev):

    -8.3116  -8.3116  -8.3027  -8.2966  -7.8828  -7.8828  -7.8356  -7.8356
    -7.8195  -7.8128  -5.4352  -5.4352   2.9945   2.9945   6.0255   6.0255
     6.2351   6.2389   8.2494   8.2494  11.1834  11.1834  11.3152  11.3180
    12.2939  12.2939

          k = 0.2000 0.2000 0.2000 (  1841 PWs)   bands (ev):

    -8.3098  -8.3098  -8.3030  -8.2971  -7.8819  -7.8819  -7.8338  -7.8338
    -7.8209  -7.8144  -5.5490  -5.5490   3.4219   3.4219   6.1151   6.1151
     6.3259   6.3296   8.3121   8.3121  11.0871  11.0871  11.2210  11.2235
    11.9023  11.9023

          k = 0.1750 0.1750 0.1750 (  1820 PWs)   bands (ev):

    -8.3081  -8.3081  -8.3031  -8.2977  -7.8810  -7.8810  -7.8320  -7.8320
    -7.8220  -7.8159  -5.6521  -5.6521   3.8602   3.8602   6.2060   6.2060
     6.4181   6.4216   8.3560   8.3560  10.9757  10.9757  11.1106  11.1128
    11.5352  11.5352

          k = 0.1500 0.1500 0.1500 (  1829 PWs)   bands (ev):

    -8.3066  -8.3066  -8.3033  -8.2983  -7.8800  -7.8800  -7.8303  -7.8303
    -7.8230  -7.8175  -5.7433  -5.7433   4.3060   4.3060   6.2956   6.2956
     6.5089   6.5122   8.3666   8.3666  10.8548  10.8548  10.9908  10.9925
    11.2058  11.2058

          k = 0.1250 0.1250 0.1250 (  1841 PWs)   bands (ev):

    -8.3053  -8.3053  -8.3033  -8.2989  -7.8792  -7.8792  -7.8286  -7.8286
    -7.8238  -7.8190  -5.8218  -5.8218   4.7559   4.7559   6.3814   6.3814
     6.5955   6.5985   8.3257   8.3257  10.7287  10.7287  10.8696  10.8709
    10.9332  10.9332

          k = 0.1000 0.1000 0.1000 (  1835 PWs)   bands (ev):

    -8.3041  -8.3041  -8.3032  -8.2996  -7.8784  -7.8784  -7.8271  -7.8271
    -7.8243  -7.8203  -5.8869  -5.8869   5.2053   5.2053   6.4604   6.4604
     6.6744   6.6770   8.2150   8.2150  10.5976  10.5976  10.7396  10.7396
    10.7554  10.7563

          k = 0.0750 0.0750 0.0750 (  1829 PWs)   bands (ev):

    -8.3032  -8.3032  -8.3030  -8.3002  -7.8777  -7.8777  -7.8258  -7.8258
    -7.8246  -7.8215  -5.9381  -5.9381   5.6473   5.6473   6.5306   6.5306
     6.7418   6.7438   8.0253   8.0253  10.4757  10.4757  10.6235  10.6235
    10.6564  10.6570

          k = 0.0500 0.0500 0.0500 (  1828 PWs)   bands (ev):

    -8.3028  -8.3025  -8.3025  -8.3009  -7.8772  -7.8772  -7.8249  -7.8249
    -7.8247  -7.8225  -5.9749  -5.9749   6.0666   6.0666   6.5951   6.5951
     6.7936   6.7950   7.7644   7.7644  10.3879  10.3879  10.5573  10.5573
    10.5798  10.5801

          k = 0.0250 0.0250 0.0250 (  1828 PWs)   bands (ev):

    -8.3024  -8.3021  -8.3021  -8.3014  -7.8769  -7.8769  -7.8245  -7.8243
    -7.8243  -7.8234  -5.9972  -5.9972   6.4003   6.4003   6.6925   6.6925
     6.8265   6.8272   7.4622   7.4622  10.3374  10.3374  10.5243  10.5243
    10.5312  10.5314

          k = 0.0000 0.0000 0.0000 (  1837 PWs)   bands (ev):

    -8.3020  -8.3020  -8.3020  -8.3020  -7.8768  -7.8768  -7.8241  -7.8241
    -7.8241  -7.8241  -6.0046  -6.0046   6.5025   6.5025   6.8380   6.8380
     6.8380   6.8380   7.2566   7.2566  10.3210  10.3210  10.5146  10.5146
    10.5146  10.5146

          k = 0.0000 0.0500 0.0000 (  1828 PWs)   bands (ev):

    -8.3025  -8.3025  -8.3016  -8.3016  -7.8769  -7.8769  -7.8246  -7.8246
    -7.8237  -7.8237  -5.9947  -5.9947   6.3762   6.3762   6.6653   6.6653
     6.8018   6.8018   7.5220   7.5220  10.3333  10.3333  10.5142  10.5142
    10.5590  10.5590

          k = 0.0000 0.1000 0.0000 (  1824 PWs)   bands (ev):

    -8.3034  -8.3034  -8.3011  -8.3011  -7.8773  -7.8773  -7.8251  -7.8251
    -7.8234  -7.8234  -5.9651  -5.9651   6.0180   6.0180   6.5145   6.5145
     6.6990   6.6990   7.9333   7.9333  10.2843  10.2843  10.6002  10.6002
    10.6874  10.6874

          k = 0.0000 0.1500 0.0000 (  1836 PWs)   bands (ev):

    -8.3047  -8.3047  -8.3004  -8.3004  -7.8781  -7.8781  -7.8257  -7.8257
    -7.8233  -7.8233  -5.9160  -5.9160   5.5955   5.5955   6.3621   6.3621
     6.5443   6.5443   8.3521   8.3521  10.1480  10.1480  10.8020  10.8020
    10.8882  10.8882

          k = 0.0000 0.2000 0.0000 (  1840 PWs)   bands (ev):

    -8.3066  -8.3066  -8.2994  -8.2994  -7.8792  -7.8792  -7.8261  -7.8261
    -7.8232  -7.8232  -5.8478  -5.8478   5.1621   5.1621   6.1839   6.1839
     6.3546   6.3546   8.7513   8.7513   9.9771   9.9771  11.0739  11.0739
    11.1475  11.1475

          k = 0.0000 0.2500 0.0000 (  1840 PWs)   bands (ev):

    -8.3088  -8.3088  -8.2983  -8.2983  -7.8805  -7.8805  -7.8263  -7.8263
    -7.8232  -7.8232  -5.7610  -5.7610   4.7283   4.7283   5.9868   5.9868
     6.1444   6.1444   9.0955   9.0955   9.8146   9.8146  11.3934  11.3934
    11.4521  11.4521

          k = 0.0000 0.3000 0.0000 (  1836 PWs)   bands (ev):

    -8.3114  -8.3114  -8.2969  -8.2969  -7.8822  -7.8822  -7.8261  -7.8261
    -7.8232  -7.8232  -5.6564  -5.6564   4.2975   4.2975   5.7796   5.7796
     5.9248   5.9248   9.2749   9.2749   9.7647   9.7647  11.7470  11.7470
    11.7912  11.7912

          k = 0.0000 0.3500 0.0000 (  1832 PWs)   bands (ev):

    -8.3143  -8.3143  -8.2954  -8.2954  -7.8840  -7.8840  -7.8255  -7.8255
    -7.8232  -7.8232  -5.5346  -5.5346   3.8712   3.8712   5.5697   5.5697
     5.7040   5.7040   9.1978   9.1978   9.9020   9.9020  12.1255  12.1255
    12.1566  12.1566

          k = 0.0000 0.4000 0.0000 (  1824 PWs)   bands (ev):

    -8.3174  -8.3174  -8.2938  -8.2938  -7.8859  -7.8859  -7.8247  -7.8247
    -7.8231  -7.8231  -5.3965  -5.3965   3.4507   3.4507   5.3629   5.3629
     5.4876   5.4876   9.0339   9.0339  10.0346  10.0346  12.5217  12.5217
    12.5424  12.5424

          k = 0.0000 0.4500 0.0000 (  1820 PWs)   bands (ev):

    -8.3206  -8.3206  -8.2921  -8.2921  -7.8878  -7.8878  -7.8239  -7.8239
    -7.8224  -7.8224  -5.2434  -5.2434   3.0370   3.0370   5.1632   5.1632
     5.2799   5.2799   8.8619   8.8619  10.0704  10.0704  12.9285  12.9285
    12.9456  12.9456

          k = 0.0000 0.5000 0.0000 (  1828 PWs)   bands (ev):

    -8.3238  -8.3238  -8.2905  -8.2905  -7.8897  -7.8897  -7.8237  -7.8237
    -7.8210  -7.8210  -5.0764  -5.0764   2.6314   2.6314   4.9740   4.9740
     5.0839   5.0839   8.6996   8.6996  10.0017  10.0017  13.3410  13.3410
    13.3640  13.3640

          k = 0.0000 0.5500 0.0000 (  1824 PWs)   bands (ev):

    -8.3271  -8.3271  -8.2888  -8.2888  -7.8914  -7.8914  -7.8236  -7.8236
    -7.8191  -7.8191  -4.8974  -4.8974   2.2356   2.2356   4.7977   4.7977
     4.9018   4.9018   8.5534   8.5534   9.8533   9.8533  13.7589  13.7589
    13.7922  13.7922

          k = 0.0000 0.6000 0.0000 (  1832 PWs)   bands (ev):

    -8.3302  -8.3302  -8.2873  -8.2873  -7.8929  -7.8929  -7.8236  -7.8236
    -7.8171  -7.8171  -4.7083  -4.7083   1.8518   1.8518   4.6361   4.6361
     4.7355   4.7355   8.4264   8.4264   9.6580   9.6580  14.1817  14.1817
    14.2258  14.2258

          k = 0.0000 0.6500 0.0000 (  1820 PWs)   bands (ev):

    -8.3331  -8.3331  -8.2858  -8.2858  -7.8943  -7.8943  -7.8235  -7.8235
    -7.8150  -7.8150  -4.5121  -4.5121   1.4829   1.4829   4.4908   4.4908
     4.5862   4.5862   8.3206   8.3206   9.4425   9.4425  14.6079  14.6079
    14.6617  14.6617

          k = 0.0000 0.7000 0.0000 (  1820 PWs)   bands (ev):

    -8.3358  -8.3358  -8.2845  -8.2845  -7.8954  -7.8954  -7.8234  -7.8234
    -7.8130  -7.8130  -4.3126  -4.3126   1.1330   1.1330   4.3629   4.3629
     4.4550   4.4550   8.2373   8.2373   9.2249   9.2249  15.0343  15.0343
    15.0961  15.0961

          k = 0.0000 0.7500 0.0000 (  1808 PWs)   bands (ev):

    -8.3382  -8.3382  -8.2833  -8.2833  -7.8963  -7.8963  -7.8233  -7.8233
    -7.8111  -7.8111  -4.1151  -4.1151   0.8076   0.8076   4.2532   4.2532
     4.3428   4.3428   8.1773   8.1773   9.0175   9.0175  15.4557  15.4557
    15.5237  15.5237

          k = 0.0000 0.8000 0.0000 (  1804 PWs)   bands (ev):

    -8.3402  -8.3402  -8.2823  -8.2823  -7.8971  -7.8971  -7.8233  -7.8233
    -7.8094  -7.8094  -3.9270  -3.9270   0.5143   0.5143   4.1626   4.1626
     4.2501   4.2501   8.1411   8.1411   8.8275   8.8275  15.8639  15.8639
    15.9356  15.9356

          k = 0.0000 0.8500 0.0000 (  1796 PWs)   bands (ev):

    -8.3418  -8.3418  -8.2815  -8.2815  -7.8976  -7.8976  -7.8232  -7.8232
    -7.8081  -7.8081  -3.7583  -3.7583   0.2635   0.2635   4.0916   4.0916
     4.1775   4.1775   8.1287   8.1287   8.6601   8.6601  16.2445  16.2445
    16.3168  16.3168

          k = 0.0000 0.9000 0.0000 (  1796 PWs)   bands (ev):

    -8.3430  -8.3430  -8.2810  -8.2810  -7.8980  -7.8980  -7.8231  -7.8231
    -7.8070  -7.8070  -3.6216  -3.6216   0.0679   0.0679   4.0406   4.0406
     4.1255   4.1255   8.1385   8.1385   8.5200   8.5200  16.5726  16.5726
    16.6412  16.6412

          k = 0.0000 0.9500 0.0000 (  1776 PWs)   bands (ev):

    -8.3437  -8.3437  -8.2806  -8.2806  -7.8982  -7.8982  -7.8231  -7.8231
    -7.8064  -7.8064  -3.5313  -3.5313  -0.0578  -0.0578   4.0099   4.0099
     4.0941   4.0941   8.1647   8.1647   8.4152   8.4152  16.8068  16.8068
    16.8679  16.8679

          k = 0.0000 1.0000 0.0000 (  1772 PWs)   bands (ev):

    -8.3440  -8.3440  -8.2805  -8.2805  -7.8983  -7.8983  -7.8231  -7.8231
    -7.8062  -7.8062  -3.4995  -3.4995  -0.1013  -0.1013   3.9996   3.9996
     4.0837   4.0837   8.1831   8.1831   8.3705   8.3705  16.8944  16.8944
    16.9506  16.9506

          k = 0.0000 0.9875 0.0375 (  1781 PWs)   bands (ev):

    -8.3467  -8.3412  -8.2811  -8.2799  -7.9028  -7.8939  -7.8237  -7.8223
    -7.8075  -7.8052  -3.5008  -3.5007  -0.0990  -0.0936   3.9793   3.9954
     4.0670   4.0750   8.2064   8.2132   8.3958   8.4088  16.7938  16.8586
    16.8789  16.9063

          k = 0.0000 0.9750 0.0750 (  1796 PWs)   bands (ev):

    -8.3493  -8.3383  -8.2816  -8.2793  -7.9073  -7.8896  -7.8243  -7.8215
    -7.8091  -7.8045  -3.5043  -3.5043  -0.0871  -0.0762   3.9354   3.9681
     4.0269   4.0427   8.2836   8.2958   8.4835   8.5077  16.5671  16.6259
    16.7291  16.7761

          k = 0.0000 0.9625 0.1125 (  1800 PWs)   bands (ev):

    -8.3517  -8.3354  -8.2820  -8.2786  -7.9118  -7.8854  -7.8249  -7.8207
    -7.8109  -7.8040  -3.5100  -3.5099  -0.0663  -0.0501   3.8704   3.9212
     3.9668   3.9929   8.4132   8.4290   8.6279   8.6611  16.2047  16.2418
    16.5320  16.5884

          k = 0.0000 0.9500 0.1500 (  1806 PWs)   bands (ev):

    -8.3539  -8.3326  -8.2823  -8.2780  -7.9162  -7.8813  -7.8254  -7.8198
    -7.8130  -7.8038  -3.5174  -3.5173  -0.0383  -0.0167   3.7873   3.8568
     3.8948   3.9347   8.5914   8.6098   8.8214   8.8617  15.7445  15.7650
    16.3045  16.3618

          k = 0.0000 0.9375 0.1875 (  1805 PWs)   bands (ev):

    -8.3558  -8.3299  -8.2826  -8.2774  -7.9204  -7.8772  -7.8259  -7.8189
    -7.8153  -7.8037  -3.5260  -3.5260  -0.0049   0.0220   3.6905   3.7698
     3.8283   3.8759   8.8132   8.8340   9.0561   9.1025  15.2291  15.2380
    16.0522  16.1058

          k = 0.0000 0.9250 0.2250 (  1811 PWs)   bands (ev):

    -8.3575  -8.3274  -8.2827  -8.2769  -7.9244  -7.8733  -7.8263  -7.8189
    -7.8167  -7.8039  -3.5355  -3.5355   0.0315   0.0635   3.5847   3.6663
     3.7742   3.8230   9.0733   9.0965   9.3249   9.3767  14.6849  14.6881
    15.7800  15.8275

          k = 0.0000 0.9125 0.2625 (  1813 PWs)   bands (ev):

    -8.3589  -8.3251  -8.2827  -8.2764  -7.9281  -7.8695  -7.8269  -7.8211
    -7.8161  -7.8043  -3.5453  -3.5452   0.0684   0.1053   3.4746   3.5562
     3.7340   3.7818   9.3662   9.3924   9.6215   9.6783  14.1263  14.1353
    15.4930  15.5334

          k = 0.0000 0.9000 0.3000 (  1818 PWs)   bands (ev):

    -8.3601  -8.3232  -8.2827  -8.2760  -7.9314  -7.8659  -7.8277  -7.8236
    -7.8150  -7.8048  -3.5549  -3.5546   0.1030   0.1445   3.3645   3.4450
     3.7112   3.7571   9.6863   9.7166   9.9398  10.0011  13.5698  13.5864
    15.1967  15.2297

          k = 0.0000 0.8875 0.3375 (  1813 PWs)   bands (ev):

    -8.3610  -8.3215  -8.2827  -8.2756  -7.9342  -7.8623  -7.8293  -7.8254
    -7.8138  -7.8054  -3.5637  -3.5633   0.1331   0.1788   3.2578   3.3369
     3.7092   3.7528  10.0263  10.0638  10.2738  10.3379  13.0266  13.0530
    14.8965  14.9226

          k = 0.0000 0.8750 0.3750 (  1813 PWs)   bands (ev):

    -8.3617  -8.3203  -8.2827  -8.2753  -7.9364  -7.8590  -7.8319  -7.8263
    -7.8126  -7.8060  -3.5714  -3.5709   0.1565   0.2058   3.1574   3.2348
     3.7303   3.7713  10.3718  10.4260  10.6166  10.6778  12.5120  12.5525
    14.5978  14.6188

          k = 0.0000 0.8625 0.4125 (  1812 PWs)   bands (ev):

    -8.3621  -8.3193  -8.2827  -8.2750  -7.9379  -7.8560  -7.8348  -7.8268
    -7.8114  -7.8067  -3.5775  -3.5769   0.1722   0.2244   3.0656   3.1412
     3.7752   3.8133  10.6766  10.7753  10.9633  11.0031  12.0674  12.1298
    14.3063  14.3272

          k = 0.0000 0.8500 0.4500 (  1810 PWs)   bands (ev):

    -8.3624  -8.3188  -8.2829  -8.2747  -7.9389  -7.8536  -7.8373  -7.8271
    -7.8103  -7.8074  -3.5818  -3.5811   0.1796   0.2340   2.9841   3.0579
     3.8429   3.8781  10.7917  10.9256  11.3111  11.3453  11.8459  11.9191
    14.0313  14.0601

          k = 0.0000 0.8375 0.4875 (  1815 PWs)   bands (ev):

    -8.3624  -8.3186  -8.2832  -8.2744  -7.9392  -7.8525  -7.8388  -7.8273
    -7.8096  -7.8079  -3.5840  -3.5833   0.1791   0.2347   2.9146   2.9864
     3.9308   3.9628  10.5873  10.6746  11.6900  11.7299  11.9703  12.0375
    13.7929  13.8366

          k = 0.0000 0.8250 0.5250 (  1819 PWs)   bands (ev):

    -8.3622  -8.3187  -8.2836  -8.2741  -7.9390  -7.8531  -7.8387  -7.8275
    -7.8097  -7.8075  -3.5839  -3.5832   0.1714   0.2277   2.8580   2.9278
     4.0341   4.0629  10.2295  10.2843  12.0027  12.0922  12.2779  12.3032
    13.6337  13.6935

          k = 0.0000 0.8125 0.5625 (  1819 PWs)   bands (ev):

    -8.3619  -8.3190  -8.2840  -8.2738  -7.9382  -7.8550  -7.8373  -7.8276
    -7.8103  -7.8068  -3.5815  -3.5808   0.1581   0.2143   2.8153   2.8831
     4.1463   4.1714   9.8497   9.8877  12.1343  12.2695  12.6703  12.7011
    13.6256  13.6856

          k = 0.0000 0.8000 0.6000 (  1821 PWs)   bands (ev):

    -8.3616  -8.3196  -8.2844  -8.2736  -7.9371  -7.8575  -7.8353  -7.8277
    -7.8110  -7.8060  -3.5766  -3.5760   0.1407   0.1962   2.7872   2.8530
     4.2583   4.2795   9.4932   9.5208  12.1013  12.2249  13.1159  13.1538
    13.7951  13.8311

          k = 0.0000 0.7875 0.6375 (  1813 PWs)   bands (ev):

    -8.3611  -8.3203  -8.2847  -8.2735  -7.9358  -7.8601  -7.8331  -7.8278
    -7.8117  -7.8054  -3.5695  -3.5689   0.1208   0.1752   2.7741   2.8379
     4.3590   4.3757   9.1820   9.2021  11.9601  12.0620  13.5796  13.6189
    14.0612  14.0767

          k = 0.0000 0.7750 0.6750 (  1810 PWs)   bands (ev):

    -8.3607  -8.3211  -8.2849  -8.2734  -7.9345  -7.8624  -7.8309  -7.8278
    -7.8124  -7.8049  -3.5601  -3.5597   0.0998   0.1527   2.7763   2.8380
     4.4352   4.4469   8.9334   8.9469  11.7669  11.8518  14.0437  14.0818
    14.3278  14.3612

          k = 0.0000 0.7625 0.7125 (  1816 PWs)   bands (ev):

    -8.3604  -8.3219  -8.2849  -8.2735  -7.9332  -7.8643  -7.8290  -7.8278
    -7.8130  -7.8045  -3.5487  -3.5484   0.0791   0.1303   2.7939   2.8537
     4.4733   4.4795   8.7620   8.7697  11.5534  11.6262  14.4672  14.5137
    14.5531  14.6243

          k = 0.0000 0.7500 0.7500 (  1822 PWs)   bands (ev):

    -8.3602  -8.3226  -8.2848  -8.2737  -7.9323  -7.8657  -7.8278  -7.8273
    -7.8136  -7.8043  -3.5356  -3.5355   0.0597   0.1092   2.8267   2.8848
     4.4618   4.4636   8.6786   8.6825  11.3347  11.3989  14.6846  14.7070
    14.8284  14.8316

          k = 0.0000 0.7125 0.7125 (  1810 PWs)   bands (ev):

    -8.3602  -8.3210  -8.2854  -8.2733  -7.9340  -7.8627  -7.8315  -7.8283
    -7.8121  -7.8048  -3.5890  -3.5883   0.1235   0.1772   2.7368   2.7992
     4.5900   4.5913   8.7987   8.8052  11.9625  12.0566  14.3748  14.3998
    14.4715  14.4807

          k = 0.0000 0.6750 0.6750 (  1798 PWs)   bands (ev):

    -8.3594  -8.3198  -8.2861  -8.2735  -7.9344  -7.8601  -7.8358  -7.8289
    -7.8109  -7.8054  -3.6690  -3.6675   0.2087   0.2646   2.7111   2.7764
     4.7315   4.7323   8.9270   8.9363  12.4506  12.5915  13.9986  14.0131
    14.2971  14.4083

          k = 0.0000 0.6375 0.6375 (  1812 PWs)   bands (ev):

    -8.3580  -8.3189  -8.2868  -8.2744  -7.9337  -7.8580  -7.8399  -7.8295
    -7.8100  -7.8061  -3.7770  -3.7746   0.3224   0.3784   2.7478   2.8144
     4.8844   4.8848   9.0585   9.0713  12.6572  12.8272  13.6217  13.6325
    13.9385  14.0607

          k = 0.0000 0.6000 0.6000 (  1810 PWs)   bands (ev):

    -8.3559  -8.3182  -8.2875  -8.2758  -7.9319  -7.8564  -7.8437  -7.8301
    -7.8095  -7.8068  -3.9118  -3.9084   0.4703   0.5247   2.8415   2.9082
     5.0464   5.0465   9.1866   9.2037  12.6239  12.7867  13.2607  13.2699
    13.5212  13.6356

          k = 0.0000 0.5625 0.5625 (  1814 PWs)   bands (ev):

    -8.3532  -8.3176  -8.2883  -8.2778  -7.9291  -7.8556  -7.8466  -7.8306
    -7.8095  -7.8075  -4.0693  -4.0651   0.6559   0.7077   2.9856   3.0516
     5.2147   5.2149   9.3026   9.3250  12.5000  12.6503  12.9190  12.9274
    13.1214  13.2358

          k = 0.0000 0.5250 0.5250 (  1820 PWs)   bands (ev):

    -8.3498  -8.3169  -8.2891  -8.2801  -7.9256  -7.8566  -7.8477  -7.8310
    -7.8099  -7.8083  -4.2439  -4.2390   0.8804   0.9290   3.1731   3.2378
     5.3866   5.3869   9.3958   9.4250  12.3642  12.5079  12.5983  12.6068
    12.7502  12.8704

          k = 0.0000 0.4875 0.4875 (  1827 PWs)   bands (ev):

    -8.3459  -8.3163  -8.2899  -8.2827  -7.9214  -7.8591  -7.8471  -7.8313
    -7.8108  -7.8091  -4.4294  -4.4242   1.1433   1.1885   3.3976   3.4608
     5.5588   5.5593   9.4558   9.4926  12.2252  12.2962  12.3107  12.3398
    12.4692  12.5656

          k = 0.0000 0.4500 0.4500 (  1831 PWs)   bands (ev):

    -8.3415  -8.3156  -8.2908  -8.2854  -7.9168  -7.8621  -7.8456  -7.8315
    -7.8120  -7.8100  -4.6197  -4.6144   1.4430   1.4848   3.6535   3.7151
     5.7280   5.7286   9.4749   9.5197  12.0127  12.0141  12.0479  12.0487
    12.3901  12.3962

          k = 0.0000 0.4125 0.4125 (  1845 PWs)   bands (ev):

    -8.3368  -8.3147  -8.2917  -8.2882  -7.9119  -7.8652  -7.8439  -7.8316
    -7.8136  -7.8110  -4.8095  -4.8044   1.7773   1.8158   3.9354   3.9956
     5.8907   5.8912   9.4510   9.5031  11.7304  11.7610  11.7810  11.7878
    12.3594  12.3811

          k = 0.0000 0.3750 0.3750 (  1835 PWs)   bands (ev):

    -8.3318  -8.3137  -8.2926  -8.2909  -7.9067  -7.8680  -7.8419  -7.8315
    -7.8153  -7.8120  -4.9942  -4.9895   2.1440   2.1793   4.2381   4.2970
     6.0436   6.0440   9.3887   9.4463  11.4621  11.5101  11.5477  11.5480
    12.3743  12.4002

          k = 0.0000 0.3375 0.3375 (  1837 PWs)   bands (ev):

    -8.3268  -8.3126  -8.2936  -8.2934  -7.9016  -7.8706  -7.8398  -7.8313
    -7.8171  -7.8131  -5.1701  -5.1660   2.5407   2.5731   4.5563   4.6139
     6.1839   6.1839   9.2956   9.3566  11.2200  11.2732  11.3376  11.3393
    12.3855  12.4099

          k = 0.0000 0.3000 0.3000 (  1829 PWs)   bands (ev):

    -8.3218  -8.3114  -8.2957  -8.2946  -7.8965  -7.8728  -7.8376  -7.8308
    -7.8189  -7.8144  -5.3342  -5.3308   2.9650   2.9947   4.8838   4.9402
     6.3089   6.3094   9.1796   9.2413  11.0077  11.0618  11.1515  11.1543
    12.3419  12.3633

          k = 0.0000 0.2625 0.2625 (  1839 PWs)   bands (ev):

    -8.3171  -8.3101  -8.2977  -8.2956  -7.8919  -7.8746  -7.8354  -7.8301
    -7.8206  -7.8157  -5.4839  -5.4812   3.4145   3.4416   5.2134   5.2685
     6.4175   6.4188   9.0451   9.1050  10.8269  10.8796  10.9883  10.9922
    12.1995  12.2176

          k = 0.0000 0.2250 0.2250 (  1839 PWs)   bands (ev):

    -8.3129  -8.3087  -8.2994  -8.2967  -7.8876  -7.8760  -7.8331  -7.8292
    -7.8220  -7.8171  -5.6173  -5.6154   3.8863   3.9111   5.5363   5.5897
     6.5097   6.5119   8.8923   8.9475  10.6792  10.7286  10.8480  10.8528
    11.9450  11.9605

          k = 0.0000 0.1875 0.1875 (  1835 PWs)   bands (ev):

    -8.3092  -8.3073  -8.3007  -8.2977  -7.8840  -7.8768  -7.8309  -7.8281
    -7.8232  -7.8185  -5.7329  -5.7316   4.3772   4.3996   5.8416   5.8926
     6.5866   6.5900   8.7152   8.7628  10.5648  10.6092  10.7310  10.7366
    11.6091  11.6231

          k = 0.0000 0.1500 0.1500 (  1841 PWs)   bands (ev):

    -8.3063  -8.3059  -8.3016  -8.2987  -7.8811  -7.8773  -7.8288  -7.8269
    -7.8241  -7.8198  -5.8292  -5.8285   4.8825   4.9024   6.1160   6.1631
     6.6509   6.6554   8.5019   8.5391  10.4821  10.5192  10.6384  10.6442
    11.2486  11.2620

          k = 0.0000 0.1125 0.1125 (  1835 PWs)   bands (ev):

    -8.3046  -8.3041  -8.3021  -8.2997  -7.8790  -7.8773  -7.8270  -7.8257
    -7.8246  -7.8211  -5.9052  -5.9049   5.3950   5.4124   6.3441   6.3845
     6.7079   6.7129   8.2368   8.2619  10.4252  10.4518  10.5725  10.5771
    10.9235  10.9354

          k = 0.0000 0.0750 0.0750 (  1825 PWs)   bands (ev):

    -8.3034  -8.3027  -8.3023  -8.3006  -7.8777  -7.8771  -7.8255  -7.8248
    -7.8247  -7.8223  -5.9602  -5.9601   5.9004   5.9145   6.5134   6.5422
     6.7648   6.7678   7.9095   7.9228  10.3821  10.3953  10.5343  10.5364
    10.6829  10.6902

          k = 0.0000 0.0375 0.0375 (  1829 PWs)   bands (ev):

    -8.3026  -8.3022  -8.3020  -8.3013  -7.8770  -7.8769  -7.8246  -7.8245
    -7.8242  -7.8233  -5.9935  -5.9935   6.3427   6.3498   6.6524   6.6640
     6.8166   6.8166   7.5326   7.5365  10.3419  10.3442  10.5184  10.5187
    10.5520  10.5534

          k = 0.0000 0.0000 0.0000 (  1837 PWs)   bands (ev):

    -8.3020  -8.3020  -8.3020  -8.3020  -7.8768  -7.8768  -7.8241  -7.8241
    -7.8241  -7.8241  -6.0046  -6.0046   6.5025   6.5025   6.8380   6.8380
     6.8380   6.8380   7.2566   7.2566  10.3210  10.3210  10.5146  10.5146
    10.5146  10.5146

     Writing all to output data dir ./outputs/gaas.save/

     init_run     :      1.16s CPU      1.53s WALL (       1 calls)
     electrons    :     99.78s CPU     93.33s WALL (       1 calls)

     Called by init_run:
     wfcinit      :      0.00s CPU      0.00s WALL (       1 calls)
     wfcinit:atom :      0.03s CPU      0.09s WALL (      81 calls)
     wfcinit:wfcr :      3.73s CPU     -9.08s WALL (      81 calls)
     potinit      :      0.17s CPU      0.32s WALL (       1 calls)
     hinit0       :      0.79s CPU      0.92s WALL (       1 calls)

     Called by electrons:
     c_bands      :     99.78s CPU     93.32s WALL (       1 calls)
     v_of_rho     :      0.00s CPU      0.04s WALL (       1 calls)
     v_h          :      0.00s CPU      0.00s WALL (       1 calls)
     v_xc         :      0.00s CPU      0.04s WALL (       1 calls)
     newd         :      0.17s CPU      0.24s WALL (       1 calls)
     PAW_pot      :      0.17s CPU      0.27s WALL (       1 calls)

     Called by c_bands:
     init_us_2    :      0.04s CPU      0.09s WALL (      81 calls)
     init_us_2:cp :      0.04s CPU      0.09s WALL (      81 calls)
     cegterg      :     95.36s CPU    101.28s WALL (     148 calls)

     Called by sum_band:

     Called by *egterg:
     cdiaghg      :      4.04s CPU    -11.08s WALL (    2300 calls)
     cegterg:over :      9.31s CPU      9.92s WALL (    2219 calls)
     cegterg:upda :      6.75s CPU      7.01s WALL (    2219 calls)
     cegterg:last :      6.02s CPU      6.28s WALL (     621 calls)
     h_psi        :     66.63s CPU     73.27s WALL (    2448 calls)
     s_psi        :      3.41s CPU      3.63s WALL (    2448 calls)
     g_psi        :      1.10s CPU      1.14s WALL (    2219 calls)

     Called by h_psi:
     h_psi:calbec :      3.44s CPU     48.76s WALL (    2448 calls)
     vloc_psi     :     59.56s CPU     20.69s WALL (    2448 calls)
     add_vuspsi   :      3.41s CPU      3.58s WALL (    2448 calls)

     General routines
     calbec       :      3.43s CPU     48.76s WALL (    2448 calls)
     fft          :      0.34s CPU      0.38s WALL (      15 calls)
     fftw         :     50.16s CPU     10.88s WALL (  188016 calls)
     davcio       :      0.05s CPU      0.09s WALL (     162 calls)

     Parallel routines

     PAW routines
     PAW_pot      :      0.17s CPU      0.27s WALL (       1 calls)

     PWSCF        :   1m41.79s CPU   1m36.22s WALL


   This run was terminated on:   6:26:15   3Jan2025            

=------------------------------------------------------------------------------=
   JOB DONE.
=------------------------------------------------------------------------------=
