
     Program PWSCF v.7.0 starts on 18Dec2024 at  6:55:43 

     This program is part of the open-source Quantum ESPRESSO suite
     for quantum simulation of materials; please cite
         "P. Giannozzi et al., J. Phys.:Condens. Matter 21 395502 (2009);
         "P. Giannozzi et al., J. Phys.:Condens. Matter 29 465901 (2017);
         "P. Giannozzi et al., J. Chem. Phys. 152 154105 (2020);
          URL http://www.quantum-espresso.org", 
     in publications or presentations arising from this work. More details at
     http://www.quantum-espresso.org/quote

     Parallel version (MPI & OpenMP), running on       2 processor cores
     Number of MPI processes:                 2
     Threads/MPI process:                     1

     MPI processes distributed on     1 nodes
     R & G space division:  proc/nbgrp/npool/nimage =       2
     228 MiB available memory on the printing compute node when the environment starts

     Reading input from pw.bands.wo_soc.in

     Current dimensions of program PWSCF are:
     Max number of different atomic species (ntypx) = 10
     Max number of k-points (npk) =  40000
     Max angular momentum in pseudopotentials (lmaxx) =  4

     Atomic positions and unit cell read from directory:
     ./outputs/gaas.save/
     Atomic positions from file used, from input discarded

     file Ga.pbe-dn-kjpaw_psl.1.0.0.UPF: wavefunction(s)  4S renormalized

     IMPORTANT: XC functional enforced from input :
     Exchange-correlation= PBE
                           (   1   4   3   4   0   0   0)
     Any further DFT definition will be discarded
     Please, verify this is what you really want

     Message from routine setup:
     using ibrav=0 with symmetry is DISCOURAGED, use correct ibrav instead

     Subspace diagonalization in iterative solution of the eigenvalue problem:
     a serial algorithm will be used


     Parallelization info
     --------------------
     sticks:   dense  smooth     PW     G-vecs:    dense   smooth      PW
     Min         408     408    120                 7676     7676    1221
     Max         409     409    121                 7677     7677    1224
     Sum         817     817    241                15353    15353    2445

     Using Slab Decomposition



     bravais-lattice index     =            0
     lattice parameter (alat)  =       7.6836  a.u.
     unit-cell volume          =     320.7602 (a.u.)^3
     number of atoms/cell      =            2
     number of atomic types    =            2
     number of electrons       =        18.00
     number of Kohn-Sham states=           13
     kinetic-energy cutoff     =      50.0000  Ry
     charge density cutoff     =     200.0000  Ry
     Exchange-correlation= PBE
                           (   1   4   3   4   0   0   0)

     celldm(1)=   7.683608  celldm(2)=   0.000000  celldm(3)=   0.000000
     celldm(4)=   0.000000  celldm(5)=   0.000000  celldm(6)=   0.000000

     crystal axes: (cart. coord. in units of alat)
               a(1) = (   1.000000   0.000000   0.000000 )  
               a(2) = (   0.500000   0.866025   0.000000 )  
               a(3) = (   0.500000   0.288675   0.816497 )  

     reciprocal axes: (cart. coord. in units 2 pi/alat)
               b(1) = (  1.000000 -0.577350 -0.408248 )  
               b(2) = (  0.000000  1.154701 -0.408248 )  
               b(3) = (  0.000000  0.000000  1.224745 )  


     PseudoPot. # 1 for As read from file:
     ../Pseudopotentials/As.pbe-n-kjpaw_psl.1.0.0.UPF
     MD5 check sum: 21b474db91924651be503153fb2dbf55
     Pseudo is Projector augmented-wave + core cor, Zval =  5.0
     Generated using &quot;atomic&quot; code by A. Dal Corso  v.6.3
     Shape of augmentation charge: PSQ
     Using radial grid of 1209 points,  4 beta functions with: 
                l(1) =   0
                l(2) =   0
                l(3) =   1
                l(4) =   1
     Q(r) pseudized with 0 coefficients 


     PseudoPot. # 2 for Ga read from file:
     ../Pseudopotentials/Ga.pbe-dn-kjpaw_psl.1.0.0.UPF
     MD5 check sum: 50ce49cbf7e0a40ad8623bf41840a268
     Pseudo is Projector augmented-wave + core cor, Zval = 13.0
     Generated using &quot;atomic&quot; code by A. Dal Corso  v.6.3
     Shape of augmentation charge: PSQ
     Using radial grid of 1205 points,  6 beta functions with: 
                l(1) =   0
                l(2) =   0
                l(3) =   1
                l(4) =   1
                l(5) =   2
                l(6) =   2
     Q(r) pseudized with 0 coefficients 


     atomic species   valence    mass     pseudopotential
        As             5.00    74.92100     As( 1.00)
        Ga            13.00    69.72300     Ga( 1.00)

     Starting magnetic structure 
     atomic species   magnetization
        As           1.000
        Ga           1.000

      6 Sym. Ops. (no inversion) found


                                    s                        frac. trans.

      isym =  1     identity                                     

 cryst.   s( 1) = (     1          0          0      )
                  (     0          1          0      )
                  (     0          0          1      )

 cart.    s( 1) = (  1.0000000  0.0000000  0.0000000 )
                  (  0.0000000  1.0000000  0.0000000 )
                  (  0.0000000  0.0000000  1.0000000 )


      isym =  2     120 deg rotation - cryst. axis [0,0,1]       

 cryst.   s( 2) = (    -1          1          0      )
                  (    -1          0          0      )
                  (    -1          0          1      )

 cart.    s( 2) = ( -0.5000000 -0.8660254 -0.0000000 )
                  (  0.8660254 -0.5000000 -0.0000000 )
                  (  0.0000000  0.0000000  1.0000000 )


      isym =  3     120 deg rotation - cryst. axis [0,0,-1]      

 cryst.   s( 3) = (     0         -1          0      )
                  (     1         -1          0      )
                  (     0         -1          1      )

 cart.    s( 3) = ( -0.5000000  0.8660254  0.0000000 )
                  ( -0.8660254 -0.5000000 -0.0000000 )
                  (  0.0000000  0.0000000  1.0000000 )


      isym =  4     inv. 180 deg rotation - cart. axis [1,0,0]   

 cryst.   s( 4) = (    -1          0          0      )
                  (    -1          1          0      )
                  (    -1          0          1      )

 cart.    s( 4) = ( -1.0000000  0.0000000 -0.0000000 )
                  (  0.0000000  1.0000000  0.0000000 )
                  (  0.0000000  0.0000000  1.0000000 )


      isym =  5     inv. 180 deg rotation - cryst. axis [0,1,0]  

 cryst.   s( 5) = (     0          1          0      )
                  (     1          0          0      )
                  (     0          0          1      )

 cart.    s( 5) = (  0.5000000  0.8660254  0.0000000 )
                  (  0.8660254 -0.5000000 -0.0000000 )
                  (  0.0000000  0.0000000  1.0000000 )


      isym =  6     inv. 180 deg rotation - cryst. axis [1,1,0]  

 cryst.   s( 6) = (     1         -1          0      )
                  (     0         -1          0      )
                  (     0         -1          1      )

 cart.    s( 6) = (  0.5000000 -0.8660254 -0.0000000 )
                  ( -0.8660254 -0.5000000 -0.0000000 )
                  (  0.0000000  0.0000000  1.0000000 )


   Cartesian axes

     site n.     atom                  positions (alat units)
         1           As  tau(   1) = (   0.5000000   0.2886751   0.2041241  )
         2           Ga  tau(   2) = (   0.0000000   0.0000000   0.0000000  )

   Crystallographic axes

     site n.     atom                  positions (cryst. coord.)
         1           As  tau(   1) = (  0.2500000  0.2500000  0.2500000  )
         2           Ga  tau(   2) = (  0.0000000  0.0000000  0.0000000  )

     number of k points=    81  Marzari-Vanderbilt smearing, width (Ry)=  0.0050
                       cart. coord. in units 2pi/alat
        k(    1) = (   0.5000000   0.2886751   0.2041241), wk =   0.0123457
        k(    2) = (   0.4750000   0.2742414   0.1939179), wk =   0.0123457
        k(    3) = (   0.4500000   0.2598076   0.1837117), wk =   0.0123457
        k(    4) = (   0.4250000   0.2453739   0.1735055), wk =   0.0123457
        k(    5) = (   0.4000000   0.2309401   0.1632993), wk =   0.0123457
        k(    6) = (   0.3750000   0.2165064   0.1530931), wk =   0.0123457
        k(    7) = (   0.3500000   0.2020726   0.1428869), wk =   0.0123457
        k(    8) = (   0.3250000   0.1876388   0.1326807), wk =   0.0123457
        k(    9) = (   0.3000000   0.1732051   0.1224745), wk =   0.0123457
        k(   10) = (   0.2750000   0.1587713   0.1122683), wk =   0.0123457
        k(   11) = (   0.2500000   0.1443376   0.1020621), wk =   0.0123457
        k(   12) = (   0.2250000   0.1299038   0.0918559), wk =   0.0123457
        k(   13) = (   0.2000000   0.1154701   0.0816497), wk =   0.0123457
        k(   14) = (   0.1750000   0.1010363   0.0714435), wk =   0.0123457
        k(   15) = (   0.1500000   0.0866025   0.0612372), wk =   0.0123457
        k(   16) = (   0.1250000   0.0721688   0.0510310), wk =   0.0123457
        k(   17) = (   0.1000000   0.0577350   0.0408248), wk =   0.0123457
        k(   18) = (   0.0750000   0.0433013   0.0306186), wk =   0.0123457
        k(   19) = (   0.0500000   0.0288675   0.0204124), wk =   0.0123457
        k(   20) = (   0.0250000   0.0144338   0.0102062), wk =   0.0123457
        k(   21) = (   0.0000000   0.0000000   0.0000000), wk =   0.0123457
        k(   22) = (   0.0250000  -0.0144338   0.0204124), wk =   0.0123457
        k(   23) = (   0.0500000  -0.0288675   0.0408248), wk =   0.0123457
        k(   24) = (   0.0750000  -0.0433013   0.0612372), wk =   0.0123457
        k(   25) = (   0.1000000  -0.0577350   0.0816497), wk =   0.0123457
        k(   26) = (   0.1250000  -0.0721688   0.1020621), wk =   0.0123457
        k(   27) = (   0.1500000  -0.0866025   0.1224745), wk =   0.0123457
        k(   28) = (   0.1750000  -0.1010363   0.1428869), wk =   0.0123457
        k(   29) = (   0.2000000  -0.1154701   0.1632993), wk =   0.0123457
        k(   30) = (   0.2250000  -0.1299038   0.1837117), wk =   0.0123457
        k(   31) = (   0.2500000  -0.1443376   0.2041241), wk =   0.0123457
        k(   32) = (   0.2750000  -0.1587713   0.2245366), wk =   0.0123457
        k(   33) = (   0.3000000  -0.1732051   0.2449490), wk =   0.0123457
        k(   34) = (   0.3250000  -0.1876388   0.2653614), wk =   0.0123457
        k(   35) = (   0.3500000  -0.2020726   0.2857738), wk =   0.0123457
        k(   36) = (   0.3750000  -0.2165064   0.3061862), wk =   0.0123457
        k(   37) = (   0.4000000  -0.2309401   0.3265986), wk =   0.0123457
        k(   38) = (   0.4250000  -0.2453739   0.3470110), wk =   0.0123457
        k(   39) = (   0.4500000  -0.2598076   0.3674235), wk =   0.0123457
        k(   40) = (   0.4750000  -0.2742414   0.3878359), wk =   0.0123457
        k(   41) = (   0.5000000  -0.2886751   0.4082483), wk =   0.0123457
        k(   42) = (   0.4937500  -0.2634161   0.4184545), wk =   0.0123457
        k(   43) = (   0.4875000  -0.2381570   0.4286607), wk =   0.0123457
        k(   44) = (   0.4812500  -0.2128979   0.4388669), wk =   0.0123457
        k(   45) = (   0.4750000  -0.1876388   0.4490731), wk =   0.0123457
        k(   46) = (   0.4687500  -0.1623798   0.4592793), wk =   0.0123457
        k(   47) = (   0.4625000  -0.1371207   0.4694855), wk =   0.0123457
        k(   48) = (   0.4562500  -0.1118616   0.4796917), wk =   0.0123457
        k(   49) = (   0.4500000  -0.0866025   0.4898979), wk =   0.0123457
        k(   50) = (   0.4437500  -0.0613435   0.5001042), wk =   0.0123457
        k(   51) = (   0.4375000  -0.0360844   0.5103104), wk =   0.0123457
        k(   52) = (   0.4312500  -0.0108253   0.5205166), wk =   0.0123457
        k(   53) = (   0.4250000   0.0144338   0.5307228), wk =   0.0123457
        k(   54) = (   0.4187500   0.0396928   0.5409290), wk =   0.0123457
        k(   55) = (   0.4125000   0.0649519   0.5511352), wk =   0.0123457
        k(   56) = (   0.4062500   0.0902110   0.5613414), wk =   0.0123457
        k(   57) = (   0.4000000   0.1154701   0.5715476), wk =   0.0123457
        k(   58) = (   0.3937500   0.1407291   0.5817538), wk =   0.0123457
        k(   59) = (   0.3875000   0.1659882   0.5919600), wk =   0.0123457
        k(   60) = (   0.3812500   0.1912473   0.6021662), wk =   0.0123457
        k(   61) = (   0.3750000   0.2165064   0.6123724), wk =   0.0123457
        k(   62) = (   0.3562500   0.2056810   0.5817538), wk =   0.0123457
        k(   63) = (   0.3375000   0.1948557   0.5511352), wk =   0.0123457
        k(   64) = (   0.3187500   0.1840304   0.5205166), wk =   0.0123457
        k(   65) = (   0.3000000   0.1732051   0.4898979), wk =   0.0123457
        k(   66) = (   0.2812500   0.1623798   0.4592793), wk =   0.0123457
        k(   67) = (   0.2625000   0.1515544   0.4286607), wk =   0.0123457
        k(   68) = (   0.2437500   0.1407291   0.3980421), wk =   0.0123457
        k(   69) = (   0.2250000   0.1299038   0.3674235), wk =   0.0123457
        k(   70) = (   0.2062500   0.1190785   0.3368048), wk =   0.0123457
        k(   71) = (   0.1875000   0.1082532   0.3061862), wk =   0.0123457
        k(   72) = (   0.1687500   0.0974279   0.2755676), wk =   0.0123457
        k(   73) = (   0.1500000   0.0866025   0.2449490), wk =   0.0123457
        k(   74) = (   0.1312500   0.0757772   0.2143304), wk =   0.0123457
        k(   75) = (   0.1125000   0.0649519   0.1837117), wk =   0.0123457
        k(   76) = (   0.0937500   0.0541266   0.1530931), wk =   0.0123457
        k(   77) = (   0.0750000   0.0433013   0.1224745), wk =   0.0123457
        k(   78) = (   0.0562500   0.0324760   0.0918559), wk =   0.0123457
        k(   79) = (   0.0375000   0.0216506   0.0612372), wk =   0.0123457
        k(   80) = (   0.0187500   0.0108253   0.0306186), wk =   0.0123457
        k(   81) = (   0.0000000   0.0000000   0.0000000), wk =   0.0123457

                       cryst. coord.
        k(    1) = (   0.5000000   0.5000000   0.5000000), wk =   0.0123457
        k(    2) = (   0.4750000   0.4750000   0.4750000), wk =   0.0123457
        k(    3) = (   0.4500000   0.4500000   0.4500000), wk =   0.0123457
        k(    4) = (   0.4250000   0.4250000   0.4250000), wk =   0.0123457
        k(    5) = (   0.4000000   0.4000000   0.4000000), wk =   0.0123457
        k(    6) = (   0.3750000   0.3750000   0.3750000), wk =   0.0123457
        k(    7) = (   0.3500000   0.3500000   0.3500000), wk =   0.0123457
        k(    8) = (   0.3250000   0.3250000   0.3250000), wk =   0.0123457
        k(    9) = (   0.3000000   0.3000000   0.3000000), wk =   0.0123457
        k(   10) = (   0.2750000   0.2750000   0.2750000), wk =   0.0123457
        k(   11) = (   0.2500000   0.2500000   0.2500000), wk =   0.0123457
        k(   12) = (   0.2250000   0.2250000   0.2250000), wk =   0.0123457
        k(   13) = (   0.2000000   0.2000000   0.2000000), wk =   0.0123457
        k(   14) = (   0.1750000   0.1750000   0.1750000), wk =   0.0123457
        k(   15) = (   0.1500000   0.1500000   0.1500000), wk =   0.0123457
        k(   16) = (   0.1250000   0.1250000   0.1250000), wk =   0.0123457
        k(   17) = (   0.1000000   0.1000000   0.1000000), wk =   0.0123457
        k(   18) = (   0.0750000   0.0750000   0.0750000), wk =   0.0123457
        k(   19) = (   0.0500000   0.0500000   0.0500000), wk =   0.0123457
        k(   20) = (   0.0250000   0.0250000   0.0250000), wk =   0.0123457
        k(   21) = (   0.0000000   0.0000000   0.0000000), wk =   0.0123457
        k(   22) = (   0.0250000   0.0000000   0.0250000), wk =   0.0123457
        k(   23) = (   0.0500000   0.0000000   0.0500000), wk =   0.0123457
        k(   24) = (   0.0750000   0.0000000   0.0750000), wk =   0.0123457
        k(   25) = (   0.1000000   0.0000000   0.1000000), wk =   0.0123457
        k(   26) = (   0.1250000   0.0000000   0.1250000), wk =   0.0123457
        k(   27) = (   0.1500000   0.0000000   0.1500000), wk =   0.0123457
        k(   28) = (   0.1750000   0.0000000   0.1750000), wk =   0.0123457
        k(   29) = (   0.2000000   0.0000000   0.2000000), wk =   0.0123457
        k(   30) = (   0.2250000  -0.0000000   0.2250000), wk =   0.0123457
        k(   31) = (   0.2500000   0.0000000   0.2500000), wk =   0.0123457
        k(   32) = (   0.2750000   0.0000000   0.2750000), wk =   0.0123457
        k(   33) = (   0.3000000   0.0000000   0.3000000), wk =   0.0123457
        k(   34) = (   0.3250000   0.0000000   0.3250000), wk =   0.0123457
        k(   35) = (   0.3500000   0.0000000   0.3500000), wk =   0.0123457
        k(   36) = (   0.3750000   0.0000000   0.3750000), wk =   0.0123457
        k(   37) = (   0.4000000   0.0000000   0.4000000), wk =   0.0123457
        k(   38) = (   0.4250000   0.0000000   0.4250000), wk =   0.0123457
        k(   39) = (   0.4500000  -0.0000000   0.4500000), wk =   0.0123457
        k(   40) = (   0.4750000  -0.0000000   0.4750000), wk =   0.0123457
        k(   41) = (   0.5000000   0.0000000   0.5000000), wk =   0.0123457
        k(   42) = (   0.4937500   0.0187500   0.5125000), wk =   0.0123457
        k(   43) = (   0.4875000   0.0375000   0.5250000), wk =   0.0123457
        k(   44) = (   0.4812500   0.0562500   0.5375000), wk =   0.0123457
        k(   45) = (   0.4750000   0.0750000   0.5500000), wk =   0.0123457
        k(   46) = (   0.4687500   0.0937500   0.5625000), wk =   0.0123457
        k(   47) = (   0.4625000   0.1125000   0.5750000), wk =   0.0123457
        k(   48) = (   0.4562500   0.1312500   0.5875000), wk =   0.0123457
        k(   49) = (   0.4500000   0.1500000   0.6000000), wk =   0.0123457
        k(   50) = (   0.4437500   0.1687500   0.6125000), wk =   0.0123457
        k(   51) = (   0.4375000   0.1875000   0.6250000), wk =   0.0123457
        k(   52) = (   0.4312500   0.2062500   0.6375000), wk =   0.0123457
        k(   53) = (   0.4250000   0.2250000   0.6500000), wk =   0.0123457
        k(   54) = (   0.4187500   0.2437500   0.6625000), wk =   0.0123457
        k(   55) = (   0.4125000   0.2625000   0.6750000), wk =   0.0123457
        k(   56) = (   0.4062500   0.2812500   0.6875000), wk =   0.0123457
        k(   57) = (   0.4000000   0.3000000   0.7000000), wk =   0.0123457
        k(   58) = (   0.3937500   0.3187500   0.7125000), wk =   0.0123457
        k(   59) = (   0.3875000   0.3375000   0.7250000), wk =   0.0123457
        k(   60) = (   0.3812500   0.3562500   0.7375000), wk =   0.0123457
        k(   61) = (   0.3750000   0.3750000   0.7500000), wk =   0.0123457
        k(   62) = (   0.3562500   0.3562500   0.7125000), wk =   0.0123457
        k(   63) = (   0.3375000   0.3375000   0.6750000), wk =   0.0123457
        k(   64) = (   0.3187500   0.3187500   0.6375000), wk =   0.0123457
        k(   65) = (   0.3000000   0.3000000   0.6000000), wk =   0.0123457
        k(   66) = (   0.2812500   0.2812500   0.5625000), wk =   0.0123457
        k(   67) = (   0.2625000   0.2625000   0.5250000), wk =   0.0123457
        k(   68) = (   0.2437500   0.2437500   0.4875000), wk =   0.0123457
        k(   69) = (   0.2250000   0.2250000   0.4500000), wk =   0.0123457
        k(   70) = (   0.2062500   0.2062500   0.4125000), wk =   0.0123457
        k(   71) = (   0.1875000   0.1875000   0.3750000), wk =   0.0123457
        k(   72) = (   0.1687500   0.1687500   0.3375000), wk =   0.0123457
        k(   73) = (   0.1500000   0.1500000   0.3000000), wk =   0.0123457
        k(   74) = (   0.1312500   0.1312500   0.2625000), wk =   0.0123457
        k(   75) = (   0.1125000   0.1125000   0.2250000), wk =   0.0123457
        k(   76) = (   0.0937500   0.0937500   0.1875000), wk =   0.0123457
        k(   77) = (   0.0750000   0.0750000   0.1500000), wk =   0.0123457
        k(   78) = (   0.0562500   0.0562500   0.1125000), wk =   0.0123457
        k(   79) = (   0.0375000   0.0375000   0.0750000), wk =   0.0123457
        k(   80) = (   0.0187500   0.0187500   0.0375000), wk =   0.0123457
        k(   81) = (   0.0000000   0.0000000   0.0000000), wk =   0.0123457

     Dense  grid:    15353 G-vectors     FFT dimensions: (  36,  36,  36)

     Dynamical RAM for                 wfc:       0.19 MB

     Dynamical RAM for     wfc (w. buffer):       0.19 MB

     Dynamical RAM for           str. fact:       0.23 MB

     Dynamical RAM for           local pot:       0.00 MB

     Dynamical RAM for          nlocal pot:       0.38 MB

     Dynamical RAM for                qrad:       2.27 MB

     Dynamical RAM for          rho,v,vnew:       1.77 MB

     Dynamical RAM for           G-vectors:       0.50 MB

     Dynamical RAM for          h,s,v(r/c):       0.12 MB

     Dynamical RAM for          <psi|beta>:       0.01 MB

     Dynamical RAM for                 psi:       0.76 MB

     Dynamical RAM for                hpsi:       0.76 MB

     Dynamical RAM for                spsi:       0.76 MB

     Dynamical RAM for      wfcinit/wfcrot:       0.38 MB

     Dynamical RAM for           addusdens:      22.02 MB

     Estimated static dynamical RAM per process >       6.76 MB

     Estimated max dynamical RAM per process >      28.79 MB

     Estimated total dynamical RAM >      57.57 MB

     Check: negative core charge=   -0.000002
     Generating pointlists ...
     new r_m :   0.2526 (alat units)  1.9409 (a.u.) for type    1
     new r_m :   0.2526 (alat units)  1.9409 (a.u.) for type    2

     The potential is recalculated from file :
     ./outputs/gaas.save/charge-density

     Starting wfcs are   13 randomized atomic wfcs
     Checking if some PAW data can be deallocated... 
       PAW data deallocated on    1 nodes for type:  1
       PAW data deallocated on    1 nodes for type:  2

     Band Structure Calculation
     Davidson diagonalization with overlap

     Computing kpt #:     1  of   162
     total cpu time spent up to now is        1.8 secs

     Computing kpt #:     2  of   162
     total cpu time spent up to now is        2.1 secs

     Computing kpt #:     3  of   162
     total cpu time spent up to now is        2.3 secs

     Computing kpt #:     4  of   162
     total cpu time spent up to now is        2.6 secs

     Computing kpt #:     5  of   162
     total cpu time spent up to now is        2.8 secs

     Computing kpt #:     6  of   162
     total cpu time spent up to now is        3.1 secs

     Computing kpt #:     7  of   162
     total cpu time spent up to now is        3.4 secs

     Computing kpt #:     8  of   162
     total cpu time spent up to now is        3.6 secs

     Computing kpt #:     9  of   162
     total cpu time spent up to now is        3.9 secs

     Computing kpt #:    10  of   162
     total cpu time spent up to now is        4.1 secs

     Computing kpt #:    11  of   162
     total cpu time spent up to now is        4.4 secs

     Computing kpt #:    12  of   162
     total cpu time spent up to now is        4.6 secs

     Computing kpt #:    13  of   162
     total cpu time spent up to now is        4.9 secs

     Computing kpt #:    14  of   162
     total cpu time spent up to now is        5.2 secs

     Computing kpt #:    15  of   162
     total cpu time spent up to now is        5.4 secs

     Computing kpt #:    16  of   162
     total cpu time spent up to now is        5.6 secs

     Computing kpt #:    17  of   162
     total cpu time spent up to now is        5.8 secs

     Computing kpt #:    18  of   162
     total cpu time spent up to now is        6.0 secs

     Computing kpt #:    19  of   162
     total cpu time spent up to now is        6.2 secs

     Computing kpt #:    20  of   162
     total cpu time spent up to now is        6.4 secs

     Computing kpt #:    21  of   162
     total cpu time spent up to now is        6.6 secs

     Computing kpt #:    22  of   162
     total cpu time spent up to now is        6.8 secs

     Computing kpt #:    23  of   162
     total cpu time spent up to now is        7.0 secs

     Computing kpt #:    24  of   162
     total cpu time spent up to now is        7.2 secs

     Computing kpt #:    25  of   162
     total cpu time spent up to now is        7.4 secs

     Computing kpt #:    26  of   162
     total cpu time spent up to now is        7.6 secs

     Computing kpt #:    27  of   162
     total cpu time spent up to now is        7.9 secs

     Computing kpt #:    28  of   162
     total cpu time spent up to now is        8.2 secs

     Computing kpt #:    29  of   162
     total cpu time spent up to now is        8.4 secs

     Computing kpt #:    30  of   162
     total cpu time spent up to now is        8.7 secs

     Computing kpt #:    31  of   162
     total cpu time spent up to now is        8.9 secs

     Computing kpt #:    32  of   162
     total cpu time spent up to now is        9.2 secs

     Computing kpt #:    33  of   162
     total cpu time spent up to now is        9.5 secs

     Computing kpt #:    34  of   162
     total cpu time spent up to now is        9.8 secs

     Computing kpt #:    35  of   162
     total cpu time spent up to now is       10.0 secs

     Computing kpt #:    36  of   162
     total cpu time spent up to now is       10.3 secs

     Computing kpt #:    37  of   162
     total cpu time spent up to now is       10.6 secs

     Computing kpt #:    38  of   162
     total cpu time spent up to now is       10.9 secs

     Computing kpt #:    39  of   162
     total cpu time spent up to now is       11.2 secs

     Computing kpt #:    40  of   162
     total cpu time spent up to now is       11.5 secs

     Computing kpt #:    41  of   162
     total cpu time spent up to now is       11.7 secs

     Computing kpt #:    42  of   162
     total cpu time spent up to now is       12.0 secs

     Computing kpt #:    43  of   162
     total cpu time spent up to now is       12.3 secs

     Computing kpt #:    44  of   162
     total cpu time spent up to now is       12.6 secs

     Computing kpt #:    45  of   162
     total cpu time spent up to now is       12.9 secs

     Computing kpt #:    46  of   162
     total cpu time spent up to now is       13.2 secs

     Computing kpt #:    47  of   162
     total cpu time spent up to now is       13.4 secs

     Computing kpt #:    48  of   162
     total cpu time spent up to now is        1.0 secs

     Computing kpt #:    49  of   162
     total cpu time spent up to now is        1.3 secs

     Computing kpt #:    50  of   162
     total cpu time spent up to now is        1.6 secs

     Computing kpt #:    51  of   162
     total cpu time spent up to now is        1.9 secs

     Computing kpt #:    52  of   162
     total cpu time spent up to now is        2.1 secs

     Computing kpt #:    53  of   162
     total cpu time spent up to now is        2.3 secs

     Computing kpt #:    54  of   162
     total cpu time spent up to now is        2.6 secs

     Computing kpt #:    55  of   162
     total cpu time spent up to now is        2.9 secs

     Computing kpt #:    56  of   162
     total cpu time spent up to now is        3.2 secs

     Computing kpt #:    57  of   162
     total cpu time spent up to now is        3.5 secs

     Computing kpt #:    58  of   162
     total cpu time spent up to now is        3.7 secs

     Computing kpt #:    59  of   162
     total cpu time spent up to now is        4.0 secs

     Computing kpt #:    60  of   162
     total cpu time spent up to now is        4.3 secs

     Computing kpt #:    61  of   162
     total cpu time spent up to now is        4.6 secs

     Computing kpt #:    62  of   162
     total cpu time spent up to now is        4.9 secs

     Computing kpt #:    63  of   162
     total cpu time spent up to now is        5.3 secs

     Computing kpt #:    64  of   162
     total cpu time spent up to now is        5.5 secs

     Computing kpt #:    65  of   162
     total cpu time spent up to now is        5.8 secs

     Computing kpt #:    66  of   162
     total cpu time spent up to now is        6.1 secs

     Computing kpt #:    67  of   162
     total cpu time spent up to now is        6.3 secs

     Computing kpt #:    68  of   162
     total cpu time spent up to now is        6.6 secs

     Computing kpt #:    69  of   162
     total cpu time spent up to now is        6.8 secs

     Computing kpt #:    70  of   162
     total cpu time spent up to now is        7.1 secs

     Computing kpt #:    71  of   162
     total cpu time spent up to now is        7.4 secs

     Computing kpt #:    72  of   162
     total cpu time spent up to now is        7.6 secs

     Computing kpt #:    73  of   162
     total cpu time spent up to now is        7.9 secs

     Computing kpt #:    74  of   162
     total cpu time spent up to now is        8.2 secs

     Computing kpt #:    75  of   162
     total cpu time spent up to now is        8.4 secs

     Computing kpt #:    76  of   162
     total cpu time spent up to now is        8.7 secs

     Computing kpt #:    77  of   162
     total cpu time spent up to now is        9.0 secs

     Computing kpt #:    78  of   162
     total cpu time spent up to now is        9.2 secs

     Computing kpt #:    79  of   162
     total cpu time spent up to now is        9.4 secs

     Computing kpt #:    80  of   162
     total cpu time spent up to now is        9.6 secs

     Computing kpt #:    81  of   162
     total cpu time spent up to now is        9.8 secs

     Computing kpt #:    82  of   162
     total cpu time spent up to now is       10.0 secs

     Computing kpt #:    83  of   162
     total cpu time spent up to now is       10.3 secs

     Computing kpt #:    84  of   162
     total cpu time spent up to now is       10.6 secs

     Computing kpt #:    85  of   162
     total cpu time spent up to now is       10.8 secs

     Computing kpt #:    86  of   162
     total cpu time spent up to now is       11.1 secs

     Computing kpt #:    87  of   162
     total cpu time spent up to now is       11.3 secs

     Computing kpt #:    88  of   162
     total cpu time spent up to now is       11.6 secs

     Computing kpt #:    89  of   162
     total cpu time spent up to now is       11.9 secs

     Computing kpt #:    90  of   162
     total cpu time spent up to now is       12.2 secs

     Computing kpt #:    91  of   162
     total cpu time spent up to now is       12.4 secs

     Computing kpt #:    92  of   162
     total cpu time spent up to now is       12.8 secs

     Computing kpt #:    93  of   162
     total cpu time spent up to now is       13.1 secs

     Computing kpt #:    94  of   162
     total cpu time spent up to now is       13.4 secs

     Computing kpt #:    95  of   162
     total cpu time spent up to now is       13.6 secs

     Computing kpt #:    96  of   162
     total cpu time spent up to now is       13.9 secs

     Computing kpt #:    97  of   162
     total cpu time spent up to now is       14.1 secs

     Computing kpt #:    98  of   162
     total cpu time spent up to now is       14.3 secs

     Computing kpt #:    99  of   162
     total cpu time spent up to now is       14.5 secs

     Computing kpt #:   100  of   162
     total cpu time spent up to now is       14.7 secs

     Computing kpt #:   101  of   162
     total cpu time spent up to now is       14.9 secs

     Computing kpt #:   102  of   162
     total cpu time spent up to now is       15.1 secs

     Computing kpt #:   103  of   162
     total cpu time spent up to now is       15.3 secs

     Computing kpt #:   104  of   162
     total cpu time spent up to now is       15.5 secs

     Computing kpt #:   105  of   162
     total cpu time spent up to now is       15.7 secs

     Computing kpt #:   106  of   162
     total cpu time spent up to now is       15.9 secs

     Computing kpt #:   107  of   162
     total cpu time spent up to now is       16.1 secs

     Computing kpt #:   108  of   162
     total cpu time spent up to now is       16.4 secs

     Computing kpt #:   109  of   162
     total cpu time spent up to now is       16.7 secs

     Computing kpt #:   110  of   162
     total cpu time spent up to now is       16.9 secs

     Computing kpt #:   111  of   162
     total cpu time spent up to now is       17.1 secs

     Computing kpt #:   112  of   162
     total cpu time spent up to now is       17.4 secs

     Computing kpt #:   113  of   162
     total cpu time spent up to now is       17.7 secs

     Computing kpt #:   114  of   162
     total cpu time spent up to now is       18.0 secs

     Computing kpt #:   115  of   162
     total cpu time spent up to now is       18.3 secs

     Computing kpt #:   116  of   162
     total cpu time spent up to now is       18.5 secs

     Computing kpt #:   117  of   162
     total cpu time spent up to now is       18.8 secs

     Computing kpt #:   118  of   162
     total cpu time spent up to now is       19.1 secs

     Computing kpt #:   119  of   162
     total cpu time spent up to now is       19.4 secs

     Computing kpt #:   120  of   162
     total cpu time spent up to now is       19.7 secs

     Computing kpt #:   121  of   162
     total cpu time spent up to now is       20.0 secs

     Computing kpt #:   122  of   162
     total cpu time spent up to now is       20.3 secs

     Computing kpt #:   123  of   162
     total cpu time spent up to now is       20.5 secs

     Computing kpt #:   124  of   162
     total cpu time spent up to now is       20.8 secs

     Computing kpt #:   125  of   162
     total cpu time spent up to now is        6.4 secs

     Computing kpt #:   126  of   162
     total cpu time spent up to now is        6.6 secs

     Computing kpt #:   127  of   162
     total cpu time spent up to now is        6.9 secs

     Computing kpt #:   128  of   162
     total cpu time spent up to now is        7.2 secs

     Computing kpt #:   129  of   162
     total cpu time spent up to now is        7.4 secs

     Computing kpt #:   130  of   162
     total cpu time spent up to now is        7.7 secs

     Computing kpt #:   131  of   162
     total cpu time spent up to now is        8.0 secs

     Computing kpt #:   132  of   162
     total cpu time spent up to now is        8.3 secs

     Computing kpt #:   133  of   162
     total cpu time spent up to now is        8.5 secs

     Computing kpt #:   134  of   162
     total cpu time spent up to now is        8.8 secs

     Computing kpt #:   135  of   162
     total cpu time spent up to now is        9.0 secs

     Computing kpt #:   136  of   162
     total cpu time spent up to now is        9.4 secs

     Computing kpt #:   137  of   162
     total cpu time spent up to now is        9.6 secs

     Computing kpt #:   138  of   162
     total cpu time spent up to now is        9.9 secs

     Computing kpt #:   139  of   162
     total cpu time spent up to now is       10.1 secs

     Computing kpt #:   140  of   162
     total cpu time spent up to now is       10.4 secs

     Computing kpt #:   141  of   162
     total cpu time spent up to now is       10.8 secs

     Computing kpt #:   142  of   162
     total cpu time spent up to now is       11.1 secs

     Computing kpt #:   143  of   162
     total cpu time spent up to now is       11.4 secs

     Computing kpt #:   144  of   162
     total cpu time spent up to now is       11.7 secs

     Computing kpt #:   145  of   162
     total cpu time spent up to now is       11.9 secs

     Computing kpt #:   146  of   162
     total cpu time spent up to now is       12.2 secs

     Computing kpt #:   147  of   162
     total cpu time spent up to now is       12.5 secs

     Computing kpt #:   148  of   162
     total cpu time spent up to now is       12.8 secs

     Computing kpt #:   149  of   162
     total cpu time spent up to now is       13.0 secs

     Computing kpt #:   150  of   162
     total cpu time spent up to now is       13.3 secs

     Computing kpt #:   151  of   162
     total cpu time spent up to now is       13.5 secs

     Computing kpt #:   152  of   162
     total cpu time spent up to now is       13.8 secs

     Computing kpt #:   153  of   162
     total cpu time spent up to now is       14.1 secs

     Computing kpt #:   154  of   162
     total cpu time spent up to now is       14.3 secs

     Computing kpt #:   155  of   162
     total cpu time spent up to now is       14.5 secs

     Computing kpt #:   156  of   162
     total cpu time spent up to now is       14.8 secs

     Computing kpt #:   157  of   162
     total cpu time spent up to now is       15.0 secs

     Computing kpt #:   158  of   162
     total cpu time spent up to now is       15.3 secs

     Computing kpt #:   159  of   162
     total cpu time spent up to now is       15.5 secs

     Computing kpt #:   160  of   162
     total cpu time spent up to now is       15.7 secs

     Computing kpt #:   161  of   162
     total cpu time spent up to now is       15.9 secs

     Computing kpt #:   162  of   162
     total cpu time spent up to now is       16.1 secs

     ethr =  5.56E-11,  avg # of iterations = 26.4

     total cpu time spent up to now is       16.1 secs

     End of band structure calculation

 ------ SPIN UP ------------


          k = 0.5000 0.2887 0.2041 (  1916 PWs)   bands (ev):

    -8.6449  -8.5650  -8.5650  -8.5110  -8.5110  -4.6438  -0.2551   5.0554
     5.0554   6.9831  10.7388  10.7388  13.8720

          k = 0.4750 0.2742 0.1939 (  1910 PWs)   bands (ev):

    -8.6445  -8.5650  -8.5650  -8.5110  -8.5110  -4.6601  -0.2248   5.0601
     5.0601   6.9880  10.7411  10.7411  13.8710

          k = 0.4500 0.2598 0.1837 (  1925 PWs)   bands (ev):

    -8.6435  -8.5652  -8.5652  -8.5112  -8.5112  -4.7077  -0.1355   5.0742
     5.0742   7.0027  10.7477  10.7477  13.8643

          k = 0.4250 0.2454 0.1735 (  1919 PWs)   bands (ev):

    -8.6418  -8.5655  -8.5655  -8.5115  -8.5115  -4.7826   0.0087   5.0975
     5.0975   7.0271  10.7575  10.7575  13.8395

          k = 0.4000 0.2309 0.1633 (  1910 PWs)   bands (ev):

    -8.6395  -8.5660  -8.5660  -8.5118  -8.5118  -4.8790   0.2021   5.1299
     5.1299   7.0609  10.7684  10.7684  13.7694

          k = 0.3750 0.2165 0.1531 (  1916 PWs)   bands (ev):

    -8.6365  -8.5666  -8.5666  -8.5123  -8.5123  -4.9911   0.4382   5.1712
     5.1712   7.1036  10.7779  10.7779  13.6146

          k = 0.3500 0.2021 0.1429 (  1913 PWs)   bands (ev):

    -8.6330  -8.5674  -8.5674  -8.5127  -8.5127  -5.1132   0.7112   5.2209
     5.2209   7.1545  10.7822  10.7822  13.3556

          k = 0.3250 0.1876 0.1327 (  1913 PWs)   bands (ev):

    -8.6290  -8.5683  -8.5683  -8.5132  -8.5132  -5.2402   1.0155   5.2785
     5.2785   7.2126  10.7775  10.7775  13.0178

          k = 0.3000 0.1732 0.1225 (  1910 PWs)   bands (ev):

    -8.6246  -8.5693  -8.5693  -8.5136  -8.5136  -5.3682   1.3466   5.3436
     5.3436   7.2763  10.7593  10.7593  12.6390

          k = 0.2750 0.1588 0.1123 (  1910 PWs)   bands (ev):

    -8.6199  -8.5705  -8.5705  -8.5140  -8.5140  -5.4939   1.7005   5.4152
     5.4152   7.3434  10.7238  10.7238  12.2449

          k = 0.2500 0.1443 0.1021 (  1916 PWs)   bands (ev):

    -8.6151  -8.5717  -8.5717  -8.5143  -8.5143  -5.6147   2.0736   5.4924
     5.4924   7.4106  10.6686  10.6686  11.8505

          k = 0.2250 0.1299 0.0919 (  1922 PWs)   bands (ev):

    -8.6101  -8.5731  -8.5731  -8.5145  -8.5145  -5.7284   2.4630   5.5740
     5.5740   7.4730  10.5930  10.5930  11.4661

          k = 0.2000 0.1155 0.0816 (  1922 PWs)   bands (ev):

    -8.6051  -8.5744  -8.5744  -8.5147  -8.5147  -5.8336   2.8658   5.6583
     5.6583   7.5234  10.4995  10.4995  11.1005

          k = 0.1750 0.1010 0.0714 (  1931 PWs)   bands (ev):

    -8.6003  -8.5758  -8.5758  -8.5149  -8.5149  -5.9289   3.2792   5.7434
     5.7434   7.5515  10.3924  10.3924  10.7637

          k = 0.1500 0.0866 0.0612 (  1922 PWs)   bands (ev):

    -8.5958  -8.5770  -8.5770  -8.5149  -8.5149  -6.0132   3.7004   5.8270
     5.8270   7.5431  10.2781  10.2781  10.4678

          k = 0.1250 0.0722 0.0510 (  1913 PWs)   bands (ev):

    -8.5916  -8.5782  -8.5782  -8.5149  -8.5149  -6.0858   4.1267   5.9064
     5.9064   7.4821  10.1639  10.1639  10.2258

          k = 0.1000 0.0577 0.0408 (  1901 PWs)   bands (ev):

    -8.5880  -8.5792  -8.5792  -8.5149  -8.5149  -6.1460   4.5545   5.9783
     5.9783   7.3541  10.0473  10.0572  10.0572

          k = 0.0750 0.0433 0.0306 (  1910 PWs)   bands (ev):

    -8.5851  -8.5800  -8.5800  -8.5149  -8.5149  -6.1934   4.9801   6.0393
     6.0393   7.1539   9.9324   9.9652   9.9652

          k = 0.0500 0.0289 0.0204 (  1917 PWs)   bands (ev):

    -8.5830  -8.5807  -8.5807  -8.5149  -8.5149  -6.2275   5.3989   6.0860
     6.0860   6.8874   9.8697   9.8944   9.8944

          k = 0.0250 0.0144 0.0102 (  1917 PWs)   bands (ev):

    -8.5816  -8.5811  -8.5811  -8.5149  -8.5149  -6.2480   5.8035   6.1154
     6.1154   6.5693   9.8418   9.8496   9.8496

          k = 0.0000 0.0000 0.0000 (  1917 PWs)   bands (ev):

    -8.5812  -8.5812  -8.5812  -8.5149  -8.5149  -6.2549   6.1255   6.1255
     6.1255   6.2752   9.8343   9.8343   9.8343

          k = 0.0250-0.0144 0.0204 (  1917 PWs)   bands (ev):

    -8.5819  -8.5809  -8.5809  -8.5150  -8.5148  -6.2457   5.7611   6.0946
     6.0946   6.6382   9.7989   9.8772   9.8772

          k = 0.0500-0.0289 0.0408 (  1913 PWs)   bands (ev):

    -8.5841  -8.5802  -8.5802  -8.5152  -8.5146  -6.2183   5.3327   6.0063
     6.0063   7.0611   9.6994  10.0011  10.0011

          k = 0.0750-0.0433 0.0612 (  1917 PWs)   bands (ev):

    -8.5876  -8.5790  -8.5790  -8.5157  -8.5142  -6.1729   4.9049   5.8717
     5.8717   7.4747   9.5534  10.1950  10.1950

          k = 0.1000-0.0577 0.0816 (  1913 PWs)   bands (ev):

    -8.5923  -8.5774  -8.5774  -8.5164  -8.5137  -6.1097   4.4806   5.7044
     5.7044   7.8672   9.3824  10.4450  10.4450

          k = 0.1250-0.0722 0.1021 (  1912 PWs)   bands (ev):

    -8.5980  -8.5753  -8.5753  -8.5172  -8.5131  -6.0293   4.0608   5.5167
     5.5167   8.2174   9.2122  10.7384  10.7384

          k = 0.1500-0.0866 0.1225 (  1920 PWs)   bands (ev):

    -8.6043  -8.5729  -8.5729  -8.5183  -8.5124  -5.9323   3.6466   5.3185
     5.3185   8.4730   9.0917  11.0648  11.0648

          k = 0.1750-0.1010 0.1429 (  1928 PWs)   bands (ev):

    -8.6112  -8.5702  -8.5702  -8.5196  -8.5116  -5.8194   3.2385   5.1176
     5.1176   8.5287   9.1137  11.4162  11.4162

          k = 0.2000-0.1155 0.1633 (  1924 PWs)   bands (ev):

    -8.6184  -8.5673  -8.5673  -8.5210  -8.5107  -5.6914   2.8373   4.9196
     4.9196   8.4220   9.2228  11.7867  11.7867

          k = 0.2250-0.1299 0.1837 (  1936 PWs)   bands (ev):

    -8.6257  -8.5642  -8.5642  -8.5225  -8.5098  -5.5495   2.4440   4.7284
     4.7284   8.2739   9.2836  12.1714  12.1714

          k = 0.2500-0.1443 0.2041 (  1924 PWs)   bands (ev):

    -8.6329  -8.5610  -8.5610  -8.5241  -8.5089  -5.3950   2.0597   4.5474
     4.5474   8.1258   9.2571  12.5671  12.5671

          k = 0.2750-0.1588 0.2245 (  1924 PWs)   bands (ev):

    -8.6398  -8.5577  -8.5577  -8.5257  -8.5079  -5.2296   1.6860   4.3787
     4.3787   7.9897   9.1522  12.9704  12.9704

          k = 0.3000-0.1732 0.2449 (  1932 PWs)   bands (ev):

    -8.6464  -8.5545  -8.5545  -8.5274  -8.5070  -5.0554   1.3250   4.2242
     4.2242   7.8708   8.9943  13.3788  13.3788

          k = 0.3250-0.1876 0.2654 (  1936 PWs)   bands (ev):

    -8.6524  -8.5515  -8.5515  -8.5290  -8.5061  -4.8754   0.9796   4.0852
     4.0852   7.7716   8.8086  13.7891  13.7891

          k = 0.3500-0.2021 0.2858 (  1932 PWs)   bands (ev):

    -8.6578  -8.5487  -8.5487  -8.5305  -8.5053  -4.6934   0.6537   3.9630
     3.9630   7.6938   8.6142  14.1979  14.1979

          k = 0.3750-0.2165 0.3062 (  1916 PWs)   bands (ev):

    -8.6625  -8.5461  -8.5461  -8.5319  -8.5046  -4.5144   0.3526   3.8582
     3.8582   7.6385   8.4241  14.5996  14.5996

          k = 0.4000-0.2309 0.3266 (  1936 PWs)   bands (ev):

    -8.6664  -8.5440  -8.5440  -8.5330  -8.5040  -4.3454   0.0833   3.7717
     3.7717   7.6064   8.2468  14.9853  14.9853

          k = 0.4250-0.2454 0.3470 (  1920 PWs)   bands (ev):

    -8.6695  -8.5422  -8.5422  -8.5339  -8.5035  -4.1953  -0.1450   3.7039
     3.7039   7.5978   8.0880  15.3408  15.3408

          k = 0.4500-0.2598 0.3674 (  1916 PWs)   bands (ev):

    -8.6718  -8.5409  -8.5409  -8.5346  -8.5032  -4.0750  -0.3213   3.6552
     3.6552   7.6123   7.9517  15.6417  15.6417

          k = 0.4750-0.2742 0.3878 (  1916 PWs)   bands (ev):

    -8.6731  -8.5401  -8.5401  -8.5351  -8.5029  -3.9964  -0.4336   3.6258
     3.6258   7.6463   7.8437  15.8513  15.8513

          k = 0.5000-0.2887 0.4082 (  1924 PWs)   bands (ev):

    -8.6736  -8.5399  -8.5399  -8.5352  -8.5029  -3.9689  -0.4723   3.6160
     3.6160   7.6747   7.7906  15.9278  15.9278

          k = 0.4937-0.2634 0.4185 (  1920 PWs)   bands (ev):

    -8.6734  -8.5401  -8.5400  -8.5350  -8.5029  -3.9700  -0.4679   3.6032
     3.6061   7.6987   7.8217  15.8592  15.8762

          k = 0.4875-0.2382 0.4287 (  1920 PWs)   bands (ev):

    -8.6729  -8.5407  -8.5403  -8.5344  -8.5032  -3.9732  -0.4548   3.5655
     3.5778   7.7713   7.9119  15.6381  15.7500

          k = 0.4812-0.2129 0.4389 (  1922 PWs)   bands (ev):

    -8.6721  -8.5417  -8.5408  -8.5336  -8.5036  -3.9783  -0.4338   3.5057
     3.5358   7.8926   8.0543  15.2848  15.5766

          k = 0.4750-0.1876 0.4491 (  1921 PWs)   bands (ev):

    -8.6710  -8.5431  -8.5413  -8.5325  -8.5040  -3.9850  -0.4063   3.4276
     3.4861   8.0600   8.2413  14.8445  15.3697

          k = 0.4687-0.1624 0.4593 (  1913 PWs)   bands (ev):

    -8.6697  -8.5447  -8.5419  -8.5314  -8.5046  -3.9929  -0.3740   3.3361
     3.4352   8.2695   8.4658  14.3546  15.1371

          k = 0.4625-0.1371 0.4695 (  1911 PWs)   bands (ev):

    -8.6682  -8.5466  -8.5424  -8.5301  -8.5054  -4.0016  -0.3390   3.2361
     3.3894   8.5160   8.7213  13.8396  14.8846

          k = 0.4562-0.1119 0.4797 (  1909 PWs)   bands (ev):

    -8.6665  -8.5486  -8.5429  -8.5288  -8.5062  -4.0106  -0.3037   3.1321
     3.3542   8.7942   9.0017  13.3159  14.6176

          k = 0.4500-0.0866 0.4899 (  1911 PWs)   bands (ev):

    -8.6649  -8.5506  -8.5434  -8.5275  -8.5070  -4.0194  -0.2703   3.0280
     3.3342   9.0985   9.3011  12.7958  14.3417

          k = 0.4437-0.0613 0.5001 (  1909 PWs)   bands (ev):

    -8.6633  -8.5524  -8.5438  -8.5262  -8.5079  -4.0277  -0.2412   2.9272
     3.3328   9.4210   9.6135  12.2913  14.0623

          k = 0.4375-0.0361 0.5103 (  1907 PWs)   bands (ev):

    -8.6619  -8.5541  -8.5443  -8.5250  -8.5088  -4.0349  -0.2180   2.8323
     3.3522   9.7445   9.9343  11.8207  13.7854

          k = 0.4312-0.0108 0.5205 (  1908 PWs)   bands (ev):

    -8.6608  -8.5554  -8.5447  -8.5239  -8.5096  -4.0408  -0.2020   2.7454
     3.3933  10.0132  10.2701  11.4272  13.5190

          k = 0.4250 0.0144 0.5307 (  1909 PWs)   bands (ev):

    -8.6599  -8.5563  -8.5451  -8.5230  -8.5102  -4.0450  -0.1937   2.6683
     3.4553  10.0919  10.6353  11.2217  13.2741

          k = 0.4187 0.0397 0.5409 (  1911 PWs)   bands (ev):

    -8.6595  -8.5567  -8.5455  -8.5224  -8.5107  -4.0473  -0.1929   2.6023
     3.5356   9.8960  11.0160  11.2838  13.0705

          k = 0.4125 0.0650 0.5511 (  1911 PWs)   bands (ev):

    -8.6593  -8.5567  -8.5458  -8.5221  -8.5108  -4.0475  -0.1988   2.5486
     3.6299   9.5634  11.3197  11.5331  12.9441

          k = 0.4062 0.0902 0.5613 (  1909 PWs)   bands (ev):

    -8.6595  -8.5562  -8.5460  -8.5223  -8.5107  -4.0456  -0.2103   2.5079
     3.7320   9.2077  11.4237  11.9304  12.9424

          k = 0.4000 0.1155 0.5715 (  1903 PWs)   bands (ev):

    -8.6600  -8.5554  -8.5462  -8.5227  -8.5103  -4.0415  -0.2259   2.4808
     3.8337   8.8724  11.3813  12.3656  13.0767

          k = 0.3937 0.1407 0.5818 (  1903 PWs)   bands (ev):

    -8.6607  -8.5543  -8.5463  -8.5234  -8.5098  -4.0352  -0.2442   2.4678
     3.9244   8.5793  11.2446  12.8109  13.2952

          k = 0.3875 0.1660 0.5920 (  1907 PWs)   bands (ev):

    -8.6616  -8.5531  -8.5463  -8.5242  -8.5092  -4.0269  -0.2639   2.4692
     3.9919   8.3447  11.0608  13.2532  13.5334

          k = 0.3812 0.1912 0.6022 (  1905 PWs)   bands (ev):

    -8.6625  -8.5521  -8.5460  -8.5250  -8.5087  -4.0167  -0.2836   2.4849
     4.0238   8.1830  10.8580  13.6514  13.7555

          k = 0.3750 0.2165 0.6124 (  1906 PWs)   bands (ev):

    -8.6634  -8.5512  -8.5456  -8.5257  -8.5082  -4.0050  -0.3023   2.5151
     4.0105   8.1046  10.6498  13.8378  13.9829

          k = 0.3562 0.2057 0.5818 (  1900 PWs)   bands (ev):

    -8.6608  -8.5533  -8.5473  -8.5236  -8.5095  -4.0526  -0.2411   2.4319
     4.1307   8.2128  11.2471  13.5965  13.6088

          k = 0.3375 0.1949 0.5511 (  1896 PWs)   bands (ev):

    -8.6581  -8.5552  -8.5493  -8.5214  -8.5109  -4.1233  -0.1609   2.4076
     4.2633   8.3266  11.7102  13.2205  13.4723

          k = 0.3187 0.1840 0.5205 (  1897 PWs)   bands (ev):

    -8.6553  -8.5569  -8.5514  -8.5194  -8.5121  -4.2189  -0.0552   2.4407
     4.4065   8.4407  11.9107  12.8588  13.1525

          k = 0.3000 0.1732 0.4899 (  1915 PWs)   bands (ev):

    -8.6523  -8.5584  -8.5536  -8.5175  -8.5134  -4.3384   0.0815   2.5270
     4.5580   8.5482  11.8900  12.5139  12.7611

          k = 0.2812 0.1624 0.4593 (  1915 PWs)   bands (ev):

    -8.6491  -8.5597  -8.5560  -8.5159  -8.5144  -4.4789   0.2531   2.6606
     4.7155   8.6405  11.7874  12.1879  12.3830

          k = 0.2625 0.1516 0.4287 (  1919 PWs)   bands (ev):

    -8.6456  -8.5609  -8.5584  -8.5153  -8.5146  -4.6356   0.4612   2.8354
     4.8760   8.7079  11.6759  11.8820  12.0344

          k = 0.2437 0.1407 0.3980 (  1919 PWs)   bands (ev):

    -8.6416  -8.5620  -8.5608  -8.5161  -8.5136  -4.8031   0.7060   3.0458
     5.0367   8.7415  11.5464  11.5970  11.7598

          k = 0.2250 0.1299 0.3674 (  1913 PWs)   bands (ev):

    -8.6372  -8.5632  -8.5631  -8.5166  -8.5129  -4.9762   0.9861   3.2862
     5.1943   8.7363  11.3079  11.3335  11.6610

          k = 0.2062 0.1191 0.3368 (  1919 PWs)   bands (ev):

    -8.6323  -8.5656  -8.5644  -8.5169  -8.5126  -5.1497   1.2998   3.5516
     5.3455   8.6923  11.0362  11.0917  11.6565

          k = 0.1875 0.1083 0.3062 (  1919 PWs)   bands (ev):

    -8.6269  -8.5680  -8.5658  -8.5171  -8.5125  -5.3193   1.6451   3.8369
     5.4873   8.6145  10.7814  10.8716  11.6758

          k = 0.1687 0.0974 0.2756 (  1915 PWs)   bands (ev):

    -8.6211  -8.5702  -8.5674  -8.5171  -8.5126  -5.4815   2.0196   4.1369
     5.6170   8.5097  10.5524  10.6732  11.6776

          k = 0.1500 0.0866 0.2449 (  1915 PWs)   bands (ev):

    -8.6151  -8.5723  -8.5692  -8.5169  -8.5129  -5.6332   2.4212   4.4456
     5.7325   8.3837  10.3525  10.4963  11.6189

          k = 0.1312 0.0758 0.2143 (  1923 PWs)   bands (ev):

    -8.6089  -8.5742  -8.5712  -8.5167  -8.5133  -5.7719   2.8473   4.7559
     5.8324   8.2393  10.1839  10.3406  11.4660

          k = 0.1125 0.0650 0.1837 (  1925 PWs)   bands (ev):

    -8.6028  -8.5760  -8.5733  -8.5164  -8.5136  -5.8956   3.2953   5.0595
     5.9164   8.0750  10.0484  10.2061  11.2148

          k = 0.0937 0.0541 0.1531 (  1921 PWs)   bands (ev):

    -8.5970  -8.5775  -8.5753  -8.5160  -8.5140  -6.0029   3.7622   5.3462
     5.9846   7.8845   9.9472  10.0924  10.8970

          k = 0.0750 0.0433 0.1225 (  1915 PWs)   bands (ev):

    -8.5917  -8.5788  -8.5772  -8.5156  -8.5143  -6.0923   4.2441   5.6045
     6.0378   7.6566   9.8800   9.9994  10.5628

          k = 0.0562 0.0325 0.0919 (  1911 PWs)   bands (ev):

    -8.5873  -8.5798  -8.5788  -8.5153  -8.5146  -6.1628   4.7362   5.8222
     6.0774   7.3786   9.8440   9.9272  10.2608

          k = 0.0375 0.0217 0.0612 (  1911 PWs)   bands (ev):

    -8.5840  -8.5806  -8.5801  -8.5151  -8.5147  -6.2138   5.2315   5.9873
     6.1045   7.0420   9.8319   9.8756  10.0275

          k = 0.0187 0.0108 0.0306 (  1917 PWs)   bands (ev):

    -8.5819  -8.5810  -8.5809  -8.5150  -8.5149  -6.2446   5.7198   6.0904
     6.1203   6.6492   9.8325   9.8446   9.8829

          k = 0.0000 0.0000 0.0000 (  1917 PWs)   bands (ev):

    -8.5812  -8.5812  -8.5812  -8.5149  -8.5149  -6.2549   6.1255   6.1255
     6.1255   6.2752   9.8343   9.8343   9.8343

 ------ SPIN DOWN ----------


          k = 0.5000 0.2887 0.2041 (  1916 PWs)   bands (ev):

    -8.6449  -8.5650  -8.5650  -8.5110  -8.5110  -4.6438  -0.2551   5.0554
     5.0554   6.9831  10.7388  10.7388  13.8720

          k = 0.4750 0.2742 0.1939 (  1910 PWs)   bands (ev):

    -8.6445  -8.5650  -8.5650  -8.5110  -8.5110  -4.6601  -0.2248   5.0601
     5.0601   6.9880  10.7412  10.7412  13.8710

          k = 0.4500 0.2598 0.1837 (  1925 PWs)   bands (ev):

    -8.6435  -8.5652  -8.5652  -8.5112  -8.5112  -4.7078  -0.1355   5.0741
     5.0741   7.0027  10.7477  10.7477  13.8644

          k = 0.4250 0.2454 0.1735 (  1919 PWs)   bands (ev):

    -8.6418  -8.5655  -8.5655  -8.5115  -8.5115  -4.7826   0.0087   5.0975
     5.0975   7.0272  10.7575  10.7575  13.8395

          k = 0.4000 0.2309 0.1633 (  1910 PWs)   bands (ev):

    -8.6394  -8.5660  -8.5660  -8.5118  -8.5118  -4.8791   0.2021   5.1299
     5.1299   7.0610  10.7685  10.7685  13.7695

          k = 0.3750 0.2165 0.1531 (  1916 PWs)   bands (ev):

    -8.6365  -8.5666  -8.5666  -8.5123  -8.5123  -4.9912   0.4382   5.1711
     5.1711   7.1036  10.7779  10.7779  13.6147

          k = 0.3500 0.2021 0.1429 (  1913 PWs)   bands (ev):

    -8.6330  -8.5674  -8.5674  -8.5127  -8.5127  -5.1132   0.7112   5.2208
     5.2208   7.1545  10.7823  10.7823  13.3556

          k = 0.3250 0.1876 0.1327 (  1913 PWs)   bands (ev):

    -8.6290  -8.5683  -8.5683  -8.5132  -8.5132  -5.2403   1.0155   5.2785
     5.2785   7.2126  10.7775  10.7775  13.0178

          k = 0.3000 0.1732 0.1225 (  1910 PWs)   bands (ev):

    -8.6246  -8.5693  -8.5693  -8.5136  -8.5136  -5.3683   1.3466   5.3436
     5.3436   7.2763  10.7593  10.7593  12.6390

          k = 0.2750 0.1588 0.1123 (  1910 PWs)   bands (ev):

    -8.6199  -8.5705  -8.5705  -8.5139  -8.5139  -5.4939   1.7005   5.4152
     5.4152   7.3434  10.7239  10.7239  12.2449

          k = 0.2500 0.1443 0.1021 (  1916 PWs)   bands (ev):

    -8.6151  -8.5717  -8.5717  -8.5143  -8.5143  -5.6147   2.0736   5.4924
     5.4924   7.4106  10.6686  10.6686  11.8505

          k = 0.2250 0.1299 0.0919 (  1922 PWs)   bands (ev):

    -8.6101  -8.5731  -8.5731  -8.5145  -8.5145  -5.7285   2.4630   5.5739
     5.5739   7.4730  10.5931  10.5931  11.4661

          k = 0.2000 0.1155 0.0816 (  1922 PWs)   bands (ev):

    -8.6051  -8.5744  -8.5744  -8.5147  -8.5147  -5.8336   2.8657   5.6582
     5.6582   7.5234  10.4995  10.4995  11.1005

          k = 0.1750 0.1010 0.0714 (  1931 PWs)   bands (ev):

    -8.6003  -8.5758  -8.5758  -8.5148  -8.5148  -5.9289   3.2792   5.7433
     5.7433   7.5515  10.3924  10.3924  10.7637

          k = 0.1500 0.0866 0.0612 (  1922 PWs)   bands (ev):

    -8.5958  -8.5770  -8.5770  -8.5149  -8.5149  -6.0132   3.7004   5.8270
     5.8270   7.5432  10.2781  10.2781  10.4678

          k = 0.1250 0.0722 0.0510 (  1913 PWs)   bands (ev):

    -8.5916  -8.5782  -8.5782  -8.5149  -8.5149  -6.0858   4.1266   5.9063
     5.9063   7.4821  10.1639  10.1639  10.2258

          k = 0.1000 0.0577 0.0408 (  1901 PWs)   bands (ev):

    -8.5880  -8.5792  -8.5792  -8.5149  -8.5149  -6.1461   4.5544   5.9783
     5.9783   7.3541  10.0473  10.0572  10.0572

          k = 0.0750 0.0433 0.0306 (  1910 PWs)   bands (ev):

    -8.5851  -8.5800  -8.5800  -8.5149  -8.5149  -6.1934   4.9801   6.0393
     6.0393   7.1539   9.9324   9.9653   9.9653

          k = 0.0500 0.0289 0.0204 (  1917 PWs)   bands (ev):

    -8.5830  -8.5807  -8.5807  -8.5149  -8.5149  -6.2275   5.3988   6.0860
     6.0860   6.8874   9.8697   9.8944   9.8944

          k = 0.0250 0.0144 0.0102 (  1917 PWs)   bands (ev):

    -8.5816  -8.5811  -8.5811  -8.5149  -8.5149  -6.2480   5.8034   6.1154
     6.1154   6.5693   9.8418   9.8497   9.8497

          k = 0.0000 0.0000 0.0000 (  1917 PWs)   bands (ev):

    -8.5812  -8.5812  -8.5812  -8.5149  -8.5149  -6.2549   6.1254   6.1254
     6.1254   6.2753   9.8344   9.8344   9.8344

          k = 0.0250-0.0144 0.0204 (  1917 PWs)   bands (ev):

    -8.5819  -8.5809  -8.5809  -8.5150  -8.5148  -6.2457   5.7611   6.0945
     6.0945   6.6382   9.7989   9.8772   9.8772

          k = 0.0500-0.0289 0.0408 (  1913 PWs)   bands (ev):

    -8.5841  -8.5802  -8.5802  -8.5152  -8.5146  -6.2183   5.3326   6.0062
     6.0062   7.0611   9.6994  10.0012  10.0012

          k = 0.0750-0.0433 0.0612 (  1917 PWs)   bands (ev):

    -8.5876  -8.5790  -8.5790  -8.5157  -8.5142  -6.1729   4.9049   5.8717
     5.8717   7.4747   9.5534  10.1950  10.1950

          k = 0.1000-0.0577 0.0816 (  1913 PWs)   bands (ev):

    -8.5923  -8.5774  -8.5774  -8.5164  -8.5137  -6.1098   4.4805   5.7044
     5.7044   7.8671   9.3824  10.4450  10.4450

          k = 0.1250-0.0722 0.1021 (  1912 PWs)   bands (ev):

    -8.5980  -8.5753  -8.5753  -8.5172  -8.5131  -6.0294   4.0608   5.5166
     5.5166   8.2174   9.2122  10.7384  10.7384

          k = 0.1500-0.0866 0.1225 (  1920 PWs)   bands (ev):

    -8.6043  -8.5729  -8.5729  -8.5183  -8.5124  -5.9323   3.6466   5.3185
     5.3185   8.4730   9.0917  11.0648  11.0648

          k = 0.1750-0.1010 0.1429 (  1928 PWs)   bands (ev):

    -8.6112  -8.5702  -8.5702  -8.5196  -8.5116  -5.8194   3.2385   5.1176
     5.1176   8.5287   9.1137  11.4162  11.4162

          k = 0.2000-0.1155 0.1633 (  1924 PWs)   bands (ev):

    -8.6184  -8.5673  -8.5673  -8.5210  -8.5107  -5.6914   2.8373   4.9195
     4.9195   8.4220   9.2228  11.7867  11.7867

          k = 0.2250-0.1299 0.1837 (  1936 PWs)   bands (ev):

    -8.6257  -8.5642  -8.5642  -8.5225  -8.5098  -5.5495   2.4440   4.7284
     4.7284   8.2739   9.2837  12.1714  12.1714

          k = 0.2500-0.1443 0.2041 (  1924 PWs)   bands (ev):

    -8.6329  -8.5610  -8.5610  -8.5241  -8.5088  -5.3950   2.0597   4.5473
     4.5473   8.1258   9.2571  12.5671  12.5671

          k = 0.2750-0.1588 0.2245 (  1924 PWs)   bands (ev):

    -8.6398  -8.5577  -8.5577  -8.5257  -8.5079  -5.2296   1.6860   4.3786
     4.3786   7.9898   9.1522  12.9704  12.9704

          k = 0.3000-0.1732 0.2449 (  1932 PWs)   bands (ev):

    -8.6464  -8.5545  -8.5545  -8.5274  -8.5070  -5.0555   1.3249   4.2241
     4.2241   7.8708   8.9943  13.3788  13.3788

          k = 0.3250-0.1876 0.2654 (  1936 PWs)   bands (ev):

    -8.6524  -8.5515  -8.5515  -8.5290  -8.5061  -4.8755   0.9796   4.0852
     4.0852   7.7716   8.8086  13.7892  13.7892

          k = 0.3500-0.2021 0.2858 (  1932 PWs)   bands (ev):

    -8.6578  -8.5487  -8.5487  -8.5305  -8.5053  -4.6934   0.6537   3.9629
     3.9629   7.6939   8.6142  14.1979  14.1979

          k = 0.3750-0.2165 0.3062 (  1916 PWs)   bands (ev):

    -8.6625  -8.5461  -8.5461  -8.5318  -8.5046  -4.5145   0.3526   3.8582
     3.8582   7.6386   8.4241  14.5997  14.5997

          k = 0.4000-0.2309 0.3266 (  1936 PWs)   bands (ev):

    -8.6664  -8.5440  -8.5440  -8.5330  -8.5040  -4.3454   0.0833   3.7717
     3.7717   7.6064   8.2468  14.9853  14.9853

          k = 0.4250-0.2454 0.3470 (  1920 PWs)   bands (ev):

    -8.6695  -8.5422  -8.5422  -8.5339  -8.5035  -4.1953  -0.1450   3.7039
     3.7039   7.5979   8.0880  15.3408  15.3408

          k = 0.4500-0.2598 0.3674 (  1916 PWs)   bands (ev):

    -8.6718  -8.5409  -8.5409  -8.5346  -8.5032  -4.0751  -0.3213   3.6552
     3.6552   7.6123   7.9517  15.6417  15.6417

          k = 0.4750-0.2742 0.3878 (  1916 PWs)   bands (ev):

    -8.6731  -8.5401  -8.5401  -8.5351  -8.5029  -3.9964  -0.4336   3.6258
     3.6258   7.6463   7.8438  15.8513  15.8513

          k = 0.5000-0.2887 0.4082 (  1924 PWs)   bands (ev):

    -8.6736  -8.5398  -8.5398  -8.5352  -8.5029  -3.9689  -0.4723   3.6160
     3.6160   7.6747   7.7906  15.9278  15.9278

          k = 0.4937-0.2634 0.4185 (  1920 PWs)   bands (ev):

    -8.6734  -8.5400  -8.5400  -8.5350  -8.5029  -3.9700  -0.4679   3.6032
     3.6060   7.6987   7.8217  15.8593  15.8762

          k = 0.4875-0.2382 0.4287 (  1920 PWs)   bands (ev):

    -8.6729  -8.5407  -8.5403  -8.5344  -8.5032  -3.9732  -0.4548   3.5655
     3.5778   7.7713   7.9119  15.6381  15.7500

          k = 0.4812-0.2129 0.4389 (  1922 PWs)   bands (ev):

    -8.6721  -8.5417  -8.5408  -8.5336  -8.5035  -3.9783  -0.4338   3.5056
     3.5358   7.8926   8.0543  15.2848  15.5766

          k = 0.4750-0.1876 0.4491 (  1921 PWs)   bands (ev):

    -8.6710  -8.5431  -8.5413  -8.5325  -8.5040  -3.9850  -0.4063   3.4276
     3.4861   8.0601   8.2413  14.8445  15.3697

          k = 0.4687-0.1624 0.4593 (  1913 PWs)   bands (ev):

    -8.6697  -8.5447  -8.5419  -8.5314  -8.5046  -3.9929  -0.3740   3.3361
     3.4352   8.2696   8.4658  14.3546  15.1371

          k = 0.4625-0.1371 0.4695 (  1911 PWs)   bands (ev):

    -8.6682  -8.5466  -8.5424  -8.5301  -8.5053  -4.0016  -0.3390   3.2361
     3.3894   8.5160   8.7213  13.8396  14.8846

          k = 0.4562-0.1119 0.4797 (  1909 PWs)   bands (ev):

    -8.6665  -8.5486  -8.5429  -8.5288  -8.5062  -4.0106  -0.3037   3.1321
     3.3542   8.7943   9.0017  13.3159  14.6177

          k = 0.4500-0.0866 0.4899 (  1911 PWs)   bands (ev):

    -8.6649  -8.5506  -8.5434  -8.5275  -8.5070  -4.0195  -0.2703   3.0280
     3.3341   9.0985   9.3011  12.7958  14.3417

          k = 0.4437-0.0613 0.5001 (  1909 PWs)   bands (ev):

    -8.6633  -8.5524  -8.5438  -8.5262  -8.5079  -4.0277  -0.2412   2.9272
     3.3327   9.4210   9.6135  12.2914  14.0623

          k = 0.4375-0.0361 0.5103 (  1907 PWs)   bands (ev):

    -8.6619  -8.5541  -8.5443  -8.5250  -8.5088  -4.0349  -0.2180   2.8323
     3.3522   9.7445   9.9343  11.8208  13.7855

          k = 0.4312-0.0108 0.5205 (  1908 PWs)   bands (ev):

    -8.6608  -8.5554  -8.5447  -8.5239  -8.5096  -4.0408  -0.2020   2.7454
     3.3933  10.0132  10.2702  11.4272  13.5190

          k = 0.4250 0.0144 0.5307 (  1909 PWs)   bands (ev):

    -8.6599  -8.5563  -8.5451  -8.5230  -8.5102  -4.0450  -0.1937   2.6683
     3.4553  10.0919  10.6353  11.2217  13.2741

          k = 0.4187 0.0397 0.5409 (  1911 PWs)   bands (ev):

    -8.6594  -8.5567  -8.5455  -8.5224  -8.5107  -4.0473  -0.1929   2.6023
     3.5355   9.8960  11.0161  11.2839  13.0706

          k = 0.4125 0.0650 0.5511 (  1911 PWs)   bands (ev):

    -8.6593  -8.5567  -8.5458  -8.5221  -8.5108  -4.0475  -0.1988   2.5486
     3.6299   9.5634  11.3197  11.5331  12.9442

          k = 0.4062 0.0902 0.5613 (  1909 PWs)   bands (ev):

    -8.6595  -8.5562  -8.5460  -8.5223  -8.5107  -4.0456  -0.2103   2.5079
     3.7320   9.2077  11.4237  11.9304  12.9424

          k = 0.4000 0.1155 0.5715 (  1903 PWs)   bands (ev):

    -8.6600  -8.5554  -8.5462  -8.5227  -8.5103  -4.0415  -0.2259   2.4808
     3.8337   8.8724  11.3813  12.3656  13.0767

          k = 0.3937 0.1407 0.5818 (  1903 PWs)   bands (ev):

    -8.6607  -8.5543  -8.5463  -8.5234  -8.5098  -4.0352  -0.2442   2.4678
     3.9244   8.5793  11.2446  12.8109  13.2952

          k = 0.3875 0.1660 0.5920 (  1907 PWs)   bands (ev):

    -8.6616  -8.5531  -8.5463  -8.5242  -8.5092  -4.0269  -0.2639   2.4692
     3.9919   8.3447  11.0609  13.2532  13.5334

          k = 0.3812 0.1912 0.6022 (  1905 PWs)   bands (ev):

    -8.6625  -8.5520  -8.5460  -8.5250  -8.5087  -4.0167  -0.2836   2.4849
     4.0238   8.1830  10.8580  13.6514  13.7555

          k = 0.3750 0.2165 0.6124 (  1906 PWs)   bands (ev):

    -8.6634  -8.5512  -8.5456  -8.5257  -8.5082  -4.0050  -0.3023   2.5151
     4.0105   8.1046  10.6498  13.8378  13.9829

          k = 0.3562 0.2057 0.5818 (  1900 PWs)   bands (ev):

    -8.6608  -8.5533  -8.5473  -8.5236  -8.5095  -4.0526  -0.2411   2.4319
     4.1307   8.2128  11.2471  13.5965  13.6088

          k = 0.3375 0.1949 0.5511 (  1896 PWs)   bands (ev):

    -8.6581  -8.5552  -8.5493  -8.5214  -8.5109  -4.1234  -0.1609   2.4076
     4.2633   8.3266  11.7102  13.2205  13.4724

          k = 0.3187 0.1840 0.5205 (  1897 PWs)   bands (ev):

    -8.6553  -8.5569  -8.5514  -8.5194  -8.5121  -4.2189  -0.0552   2.4407
     4.4065   8.4407  11.9107  12.8588  13.1525

          k = 0.3000 0.1732 0.4899 (  1915 PWs)   bands (ev):

    -8.6523  -8.5584  -8.5536  -8.5175  -8.5134  -4.3385   0.0815   2.5270
     4.5580   8.5483  11.8900  12.5139  12.7611

          k = 0.2812 0.1624 0.4593 (  1915 PWs)   bands (ev):

    -8.6491  -8.5597  -8.5560  -8.5159  -8.5144  -4.4789   0.2531   2.6606
     4.7154   8.6405  11.7874  12.1880  12.3830

          k = 0.2625 0.1516 0.4287 (  1919 PWs)   bands (ev):

    -8.6456  -8.5609  -8.5584  -8.5153  -8.5146  -4.6356   0.4612   2.8354
     4.8760   8.7079  11.6759  11.8820  12.0344

          k = 0.2437 0.1407 0.3980 (  1919 PWs)   bands (ev):

    -8.6416  -8.5620  -8.5608  -8.5161  -8.5136  -4.8032   0.7060   3.0458
     5.0367   8.7415  11.5464  11.5970  11.7599

          k = 0.2250 0.1299 0.3674 (  1913 PWs)   bands (ev):

    -8.6372  -8.5632  -8.5631  -8.5165  -8.5129  -4.9762   0.9861   3.2861
     5.1943   8.7363  11.3079  11.3335  11.6611

          k = 0.2062 0.1191 0.3368 (  1919 PWs)   bands (ev):

    -8.6323  -8.5656  -8.5644  -8.5169  -8.5126  -5.1497   1.2998   3.5515
     5.3455   8.6923  11.0362  11.0917  11.6565

          k = 0.1875 0.1083 0.3062 (  1919 PWs)   bands (ev):

    -8.6269  -8.5680  -8.5658  -8.5171  -8.5125  -5.3194   1.6451   3.8369
     5.4872   8.6145  10.7814  10.8716  11.6758

          k = 0.1687 0.0974 0.2756 (  1915 PWs)   bands (ev):

    -8.6211  -8.5702  -8.5674  -8.5171  -8.5126  -5.4815   2.0196   4.1369
     5.6169   8.5097  10.5524  10.6732  11.6776

          k = 0.1500 0.0866 0.2449 (  1915 PWs)   bands (ev):

    -8.6151  -8.5723  -8.5692  -8.5169  -8.5129  -5.6332   2.4211   4.4456
     5.7325   8.3837  10.3526  10.4963  11.6189

          k = 0.1312 0.0758 0.2143 (  1923 PWs)   bands (ev):

    -8.6089  -8.5742  -8.5712  -8.5167  -8.5133  -5.7719   2.8472   4.7559
     5.8324   8.2393  10.1839  10.3407  11.4660

          k = 0.1125 0.0650 0.1837 (  1925 PWs)   bands (ev):

    -8.6028  -8.5760  -8.5733  -8.5164  -8.5136  -5.8957   3.2953   5.0594
     5.9163   8.0750  10.0484  10.2061  11.2148

          k = 0.0937 0.0541 0.1531 (  1921 PWs)   bands (ev):

    -8.5970  -8.5775  -8.5753  -8.5160  -8.5140  -6.0029   3.7622   5.3461
     5.9845   7.8845   9.9472  10.0924  10.8970

          k = 0.0750 0.0433 0.1225 (  1915 PWs)   bands (ev):

    -8.5917  -8.5788  -8.5772  -8.5156  -8.5143  -6.0923   4.2441   5.6045
     6.0378   7.6566   9.8800   9.9995  10.5628

          k = 0.0562 0.0325 0.0919 (  1911 PWs)   bands (ev):

    -8.5873  -8.5798  -8.5788  -8.5153  -8.5145  -6.1629   4.7362   5.8221
     6.0773   7.3786   9.8440   9.9272  10.2608

          k = 0.0375 0.0217 0.0612 (  1911 PWs)   bands (ev):

    -8.5840  -8.5806  -8.5801  -8.5151  -8.5147  -6.2138   5.2315   5.9873
     6.1045   7.0420   9.8319   9.8756  10.0275

          k = 0.0187 0.0108 0.0306 (  1917 PWs)   bands (ev):

    -8.5819  -8.5810  -8.5809  -8.5149  -8.5149  -6.2446   5.7198   6.0904
     6.1202   6.6492   9.8325   9.8447   9.8829

          k = 0.0000 0.0000 0.0000 (  1917 PWs)   bands (ev):

    -8.5812  -8.5812  -8.5812  -8.5149  -8.5149  -6.2549   6.1254   6.1254
     6.1254   6.2753   9.8344   9.8344   9.8344

     Writing all to output data dir ./outputs/gaas.save/

     init_run     :      0.95s CPU      1.13s WALL (       1 calls)
     electrons    :     40.31s CPU     14.61s WALL (       1 calls)

     Called by init_run:
     wfcinit      :      0.00s CPU      0.00s WALL (       1 calls)
     wfcinit:atom :      0.04s CPU      0.05s WALL (     162 calls)
     wfcinit:wfcr :      1.42s CPU      1.54s WALL (     162 calls)
     potinit      :      0.35s CPU      0.40s WALL (       1 calls)
     hinit0       :      0.52s CPU      0.63s WALL (       1 calls)

     Called by electrons:
     c_bands      :     40.31s CPU     14.60s WALL (       1 calls)
     v_of_rho     :      0.03s CPU      0.03s WALL (       1 calls)
     v_h          :      0.00s CPU      0.00s WALL (       1 calls)
     v_xc         :      0.03s CPU      0.03s WALL (       1 calls)
     newd         :      0.04s CPU      0.04s WALL (       1 calls)
     PAW_pot      :      0.32s CPU      0.37s WALL (       1 calls)

     Called by c_bands:
     init_us_2    :      0.06s CPU      0.06s WALL (     162 calls)
     init_us_2:cp :      0.06s CPU      0.06s WALL (     162 calls)
     cegterg      :     38.31s CPU     39.80s WALL (     301 calls)

     Called by sum_band:

     Called by *egterg:
     cdiaghg      :      1.90s CPU      1.98s WALL (    4442 calls)
     cegterg:over :      2.72s CPU      2.82s WALL (    4280 calls)
     cegterg:upda :      2.10s CPU      2.19s WALL (    4280 calls)
     cegterg:last :      1.80s CPU      1.85s WALL (    1234 calls)
     h_psi        :     28.78s CPU     29.98s WALL (    4743 calls)
     s_psi        :      1.06s CPU      1.11s WALL (    4743 calls)
     g_psi        :      0.58s CPU      0.60s WALL (    4280 calls)

     Called by h_psi:
     h_psi:calbec :      1.27s CPU      1.32s WALL (    4743 calls)
     vloc_psi     :     26.29s CPU     27.40s WALL (    4743 calls)
     add_vuspsi   :      1.09s CPU      1.12s WALL (    4743 calls)

     General routines
     calbec       :      1.26s CPU      1.31s WALL (    4743 calls)
     fft          :      0.30s CPU      0.37s WALL (      21 calls)
     fftw         :     23.24s CPU     24.28s WALL (   92158 calls)
     davcio       :      0.03s CPU      0.05s WALL (     324 calls)

     Parallel routines

     PAW routines
     PAW_pot      :      0.32s CPU      0.37s WALL (       1 calls)

     PWSCF        :     41.58s CPU     16.51s WALL


   This run was terminated on:   6:56: 0  18Dec2024            

=------------------------------------------------------------------------------=
   JOB DONE.
=------------------------------------------------------------------------------=
