
     Program PWSCF v.7.0 starts on  3Jan2025 at  6:14:11 

     This program is part of the open-source Quantum ESPRESSO suite
     for quantum simulation of materials; please cite
         "P. Giannozzi et al., J. Phys.:Condens. Matter 21 395502 (2009);
         "P. Giannozzi et al., J. Phys.:Condens. Matter 29 465901 (2017);
         "P. Giannozzi et al., J. Chem. Phys. 152 154105 (2020);
          URL http://www.quantum-espresso.org", 
     in publications or presentations arising from this work. More details at
     http://www.quantum-espresso.org/quote

     Parallel version (MPI & OpenMP), running on       2 processor cores
     Number of MPI processes:                 2
     Threads/MPI process:                     1

     MPI processes distributed on     1 nodes
     R & G space division:  proc/nbgrp/npool/nimage =       2
     210 MiB available memory on the printing compute node when the environment starts

     Reading input from pw.scf.wo_soc.in

     Current dimensions of program PWSCF are:
     Max number of different atomic species (ntypx) = 10
     Max number of k-points (npk) =  40000
     Max angular momentum in pseudopotentials (lmaxx) =  4
     Message from routine volume:
     axis vectors are left-handed
     file Ga.pbe-dn-kjpaw_psl.1.0.0.UPF: wavefunction(s)  4S renormalized

     IMPORTANT: XC functional enforced from input :
     Exchange-correlation= PBE
                           (   1   4   3   4   0   0   0)
     Any further DFT definition will be discarded
     Please, verify this is what you really want

     Message from routine setup:
     using ibrav=0 with symmetry is DISCOURAGED, use correct ibrav instead

     Subspace diagonalization in iterative solution of the eigenvalue problem:
     a serial algorithm will be used


     Parallelization info
     --------------------
     sticks:   dense  smooth     PW     G-vecs:    dense   smooth      PW
     Min         384     384    120                 7179     7179    1210
     Max         385     385    121                 7182     7182    1211
     Sum         769     769    241                14361    14361    2421

     Using Slab Decomposition



     bravais-lattice index     =            0
     lattice parameter (alat)  =      10.6839  a.u.
     unit-cell volume          =     304.8842 (a.u.)^3
     number of atoms/cell      =            2
     number of atomic types    =            2
     number of electrons       =        18.00
     number of Kohn-Sham states=           13
     kinetic-energy cutoff     =      50.0000  Ry
     charge density cutoff     =     200.0000  Ry
     scf convergence threshold =      1.0E-08
     mixing beta               =       0.3000
     number of iterations used =            8  plain     mixing
     Exchange-correlation= PBE
                           (   1   4   3   4   0   0   0)

     celldm(1)=  10.683945  celldm(2)=   0.000000  celldm(3)=   0.000000
     celldm(4)=   0.000000  celldm(5)=   0.000000  celldm(6)=   0.000000

     crystal axes: (cart. coord. in units of alat)
               a(1) = (   0.500000   0.500000   0.000000 )  
               a(2) = (   0.500000   0.000000   0.500000 )  
               a(3) = (   0.000000   0.500000   0.500000 )  

     reciprocal axes: (cart. coord. in units 2 pi/alat)
               b(1) = (  1.000000  1.000000 -1.000000 )  
               b(2) = (  1.000000 -1.000000  1.000000 )  
               b(3) = ( -1.000000  1.000000  1.000000 )  


     PseudoPot. # 1 for As read from file:
     ../Pseudopotentials/As.pbe-n-kjpaw_psl.1.0.0.UPF
     MD5 check sum: 21b474db91924651be503153fb2dbf55
     Pseudo is Projector augmented-wave + core cor, Zval =  5.0
     Generated using &quot;atomic&quot; code by A. Dal Corso  v.6.3
     Shape of augmentation charge: PSQ
     Using radial grid of 1209 points,  4 beta functions with: 
                l(1) =   0
                l(2) =   0
                l(3) =   1
                l(4) =   1
     Q(r) pseudized with 0 coefficients 


     PseudoPot. # 2 for Ga read from file:
     ../Pseudopotentials/Ga.pbe-dn-kjpaw_psl.1.0.0.UPF
     MD5 check sum: 50ce49cbf7e0a40ad8623bf41840a268
     Pseudo is Projector augmented-wave + core cor, Zval = 13.0
     Generated using &quot;atomic&quot; code by A. Dal Corso  v.6.3
     Shape of augmentation charge: PSQ
     Using radial grid of 1205 points,  6 beta functions with: 
                l(1) =   0
                l(2) =   0
                l(3) =   1
                l(4) =   1
                l(5) =   2
                l(6) =   2
     Q(r) pseudized with 0 coefficients 


     atomic species   valence    mass     pseudopotential
        As             5.00    74.92100     As( 1.00)
        Ga            13.00    69.72300     Ga( 1.00)

     Starting magnetic structure 
     atomic species   magnetization
        As           1.000
        Ga           1.000

     24 Sym. Ops. (no inversion) found


                                    s                        frac. trans.

      isym =  1     identity                                     

 cryst.   s( 1) = (     1          0          0      )
                  (     0          1          0      )
                  (     0          0          1      )

 cart.    s( 1) = (  1.0000000  0.0000000  0.0000000 )
                  (  0.0000000  1.0000000  0.0000000 )
                  (  0.0000000  0.0000000  1.0000000 )


      isym =  2     180 deg rotation - cart. axis [0,0,1]        

 cryst.   s( 2) = (    -1          0          0      )
                  (    -1          0          1      )
                  (    -1          1          0      )

 cart.    s( 2) = ( -1.0000000  0.0000000  0.0000000 )
                  (  0.0000000 -1.0000000  0.0000000 )
                  (  0.0000000  0.0000000  1.0000000 )


      isym =  3     180 deg rotation - cart. axis [0,1,0]        

 cryst.   s( 3) = (     0         -1          1      )
                  (     0         -1          0      )
                  (     1         -1          0      )

 cart.    s( 3) = ( -1.0000000  0.0000000  0.0000000 )
                  (  0.0000000  1.0000000  0.0000000 )
                  (  0.0000000  0.0000000 -1.0000000 )


      isym =  4     180 deg rotation - cart. axis [1,0,0]        

 cryst.   s( 4) = (     0          1         -1      )
                  (     1          0         -1      )
                  (     0          0         -1      )

 cart.    s( 4) = (  1.0000000  0.0000000  0.0000000 )
                  (  0.0000000 -1.0000000  0.0000000 )
                  (  0.0000000  0.0000000 -1.0000000 )


      isym =  5     120 deg rotation - cart. axis [-1,-1,-1]     

 cryst.   s( 5) = (     0          1          0      )
                  (     0          0          1      )
                  (     1          0          0      )

 cart.    s( 5) = (  0.0000000  1.0000000  0.0000000 )
                  (  0.0000000  0.0000000  1.0000000 )
                  (  1.0000000  0.0000000  0.0000000 )


      isym =  6     120 deg rotation - cart. axis [-1,1,1]       

 cryst.   s( 6) = (     0         -1          0      )
                  (     1         -1          0      )
                  (     0         -1          1      )

 cart.    s( 6) = (  0.0000000 -1.0000000  0.0000000 )
                  (  0.0000000  0.0000000  1.0000000 )
                  ( -1.0000000  0.0000000  0.0000000 )


      isym =  7     120 deg rotation - cart. axis [1,1,-1]       

 cryst.   s( 7) = (     1          0         -1      )
                  (     0          0         -1      )
                  (     0          1         -1      )

 cart.    s( 7) = (  0.0000000  1.0000000  0.0000000 )
                  (  0.0000000  0.0000000 -1.0000000 )
                  ( -1.0000000  0.0000000  0.0000000 )


      isym =  8     120 deg rotation - cart. axis [1,-1,1]       

 cryst.   s( 8) = (    -1          0          1      )
                  (    -1          1          0      )
                  (    -1          0          0      )

 cart.    s( 8) = (  0.0000000 -1.0000000  0.0000000 )
                  (  0.0000000  0.0000000 -1.0000000 )
                  (  1.0000000  0.0000000  0.0000000 )


      isym =  9     120 deg rotation - cart. axis [1,1,1]        

 cryst.   s( 9) = (     0          0          1      )
                  (     1          0          0      )
                  (     0          1          0      )

 cart.    s( 9) = (  0.0000000  0.0000000  1.0000000 )
                  (  1.0000000  0.0000000  0.0000000 )
                  (  0.0000000  1.0000000  0.0000000 )


      isym = 10     120 deg rotation - cart. axis [-1,1,-1]      

 cryst.   s(10) = (     0          0         -1      )
                  (     0          1         -1      )
                  (     1          0         -1      )

 cart.    s(10) = (  0.0000000  0.0000000  1.0000000 )
                  ( -1.0000000  0.0000000  0.0000000 )
                  (  0.0000000 -1.0000000  0.0000000 )


      isym = 11     120 deg rotation - cart. axis [1,-1,-1]      

 cryst.   s(11) = (    -1          1          0      )
                  (    -1          0          0      )
                  (    -1          0          1      )

 cart.    s(11) = (  0.0000000  0.0000000 -1.0000000 )
                  ( -1.0000000  0.0000000  0.0000000 )
                  (  0.0000000  1.0000000  0.0000000 )


      isym = 12     120 deg rotation - cart. axis [-1,-1,1]      

 cryst.   s(12) = (     1         -1          0      )
                  (     0         -1          1      )
                  (     0         -1          0      )

 cart.    s(12) = (  0.0000000  0.0000000 -1.0000000 )
                  (  1.0000000  0.0000000  0.0000000 )
                  (  0.0000000 -1.0000000  0.0000000 )


      isym = 13     inv. 180 deg rotation - cart. axis [1,1,0]   

 cryst.   s(13) = (    -1          0          0      )
                  (    -1          1          0      )
                  (    -1          0          1      )

 cart.    s(13) = (  0.0000000 -1.0000000  0.0000000 )
                  ( -1.0000000  0.0000000  0.0000000 )
                  (  0.0000000  0.0000000  1.0000000 )


      isym = 14     inv. 180 deg rotation - cart. axis [1,-1,0]  

 cryst.   s(14) = (     1          0          0      )
                  (     0          0          1      )
                  (     0          1          0      )

 cart.    s(14) = (  0.0000000  1.0000000  0.0000000 )
                  (  1.0000000  0.0000000  0.0000000 )
                  (  0.0000000  0.0000000  1.0000000 )


      isym = 15     inv.  90 deg rotation - cart. axis [0,0,-1]  

 cryst.   s(15) = (     0         -1          1      )
                  (     1         -1          0      )
                  (     0         -1          0      )

 cart.    s(15) = (  0.0000000 -1.0000000  0.0000000 )
                  (  1.0000000  0.0000000  0.0000000 )
                  (  0.0000000  0.0000000 -1.0000000 )


      isym = 16     inv.  90 deg rotation - cart. axis [0,0,1]   

 cryst.   s(16) = (     0          1         -1      )
                  (     0          0         -1      )
                  (     1          0         -1      )

 cart.    s(16) = (  0.0000000  1.0000000  0.0000000 )
                  ( -1.0000000  0.0000000  0.0000000 )
                  (  0.0000000  0.0000000 -1.0000000 )


      isym = 17     inv. 180 deg rotation - cart. axis [1,0,1]   

 cryst.   s(17) = (     1         -1          0      )
                  (     0         -1          0      )
                  (     0         -1          1      )

 cart.    s(17) = (  0.0000000  0.0000000 -1.0000000 )
                  (  0.0000000  1.0000000  0.0000000 )
                  ( -1.0000000  0.0000000  0.0000000 )


      isym = 18     inv. 180 deg rotation - cart. axis [-1,0,1]  

 cryst.   s(18) = (     0          0          1      )
                  (     0          1          0      )
                  (     1          0          0      )

 cart.    s(18) = (  0.0000000  0.0000000  1.0000000 )
                  (  0.0000000  1.0000000  0.0000000 )
                  (  1.0000000  0.0000000  0.0000000 )


      isym = 19     inv.  90 deg rotation - cart. axis [0,1,0]   

 cryst.   s(19) = (    -1          1          0      )
                  (    -1          0          1      )
                  (    -1          0          0      )

 cart.    s(19) = (  0.0000000  0.0000000 -1.0000000 )
                  (  0.0000000 -1.0000000  0.0000000 )
                  (  1.0000000  0.0000000  0.0000000 )


      isym = 20     inv.  90 deg rotation - cart. axis [0,-1,0]  

 cryst.   s(20) = (     0          0         -1      )
                  (     1          0         -1      )
                  (     0          1         -1      )

 cart.    s(20) = (  0.0000000  0.0000000  1.0000000 )
                  (  0.0000000 -1.0000000  0.0000000 )
                  ( -1.0000000  0.0000000  0.0000000 )


      isym = 21     inv. 180 deg rotation - cart. axis [0,1,1]   

 cryst.   s(21) = (     1          0         -1      )
                  (     0          1         -1      )
                  (     0          0         -1      )

 cart.    s(21) = (  1.0000000  0.0000000  0.0000000 )
                  (  0.0000000  0.0000000 -1.0000000 )
                  (  0.0000000 -1.0000000  0.0000000 )


      isym = 22     inv. 180 deg rotation - cart. axis [0,1,-1]  

 cryst.   s(22) = (     0          1          0      )
                  (     1          0          0      )
                  (     0          0          1      )

 cart.    s(22) = (  1.0000000  0.0000000  0.0000000 )
                  (  0.0000000  0.0000000  1.0000000 )
                  (  0.0000000  1.0000000  0.0000000 )


      isym = 23     inv.  90 deg rotation - cart. axis [-1,0,0]  

 cryst.   s(23) = (    -1          0          1      )
                  (    -1          0          0      )
                  (    -1          1          0      )

 cart.    s(23) = ( -1.0000000  0.0000000  0.0000000 )
                  (  0.0000000  0.0000000 -1.0000000 )
                  (  0.0000000  1.0000000  0.0000000 )


      isym = 24     inv.  90 deg rotation - cart. axis [1,0,0]   

 cryst.   s(24) = (     0         -1          0      )
                  (     0         -1          1      )
                  (     1         -1          0      )

 cart.    s(24) = ( -1.0000000  0.0000000  0.0000000 )
                  (  0.0000000  0.0000000  1.0000000 )
                  (  0.0000000 -1.0000000  0.0000000 )


   Cartesian axes

     site n.     atom                  positions (alat units)
         1           As  tau(   1) = (   0.2500000   0.2500000   0.2500000  )
         2           Ga  tau(   2) = (   0.0000000   0.0000000   0.0000000  )

   Crystallographic axes

     site n.     atom                  positions (cryst. coord.)
         1           As  tau(   1) = (  0.2500000  0.2500000  0.2500000  )
         2           Ga  tau(   2) = (  0.0000000  0.0000000  0.0000000  )

     number of k points=    20  Marzari-Vanderbilt smearing, width (Ry)=  0.0050
                       cart. coord. in units 2pi/alat
        k(    1) = (   0.0000000   0.0000000   0.0000000), wk =   0.0029155
        k(    2) = (  -0.1428571   0.1428571   0.1428571), wk =   0.0233236
        k(    3) = (  -0.2857143   0.2857143   0.2857143), wk =   0.0233236
        k(    4) = (  -0.4285714   0.4285714   0.4285714), wk =   0.0233236
        k(    5) = (   0.0000000   0.0000000   0.2857143), wk =   0.0174927
        k(    6) = (  -0.1428571   0.1428571   0.4285714), wk =   0.0699708
        k(    7) = (  -0.2857143   0.2857143   0.5714286), wk =   0.0699708
        k(    8) = (   0.5714286  -0.5714286  -0.2857143), wk =   0.0699708
        k(    9) = (   0.4285714  -0.4285714  -0.1428571), wk =   0.0699708
        k(   10) = (   0.2857143  -0.2857143  -0.0000000), wk =   0.0349854
        k(   11) = (   0.0000000   0.0000000   0.5714286), wk =   0.0174927
        k(   12) = (  -0.1428571   0.1428571   0.7142857), wk =   0.0699708
        k(   13) = (   0.7142857  -0.7142857  -0.1428571), wk =   0.0699708
        k(   14) = (   0.5714286  -0.5714286   0.0000000), wk =   0.0349854
        k(   15) = (   0.0000000   0.0000000   0.8571429), wk =   0.0174927
        k(   16) = (   0.8571429  -0.8571429  -0.0000000), wk =   0.0349854
        k(   17) = (   0.0000000   0.2857143   0.5714286), wk =   0.0699708
        k(   18) = (   0.8571429  -0.5714286  -0.2857143), wk =   0.1399417
        k(   19) = (   1.0000000  -0.7142857  -0.1428571), wk =   0.0699708
        k(   20) = (   0.8571429  -0.5714286   0.0000000), wk =   0.0699708

                       cryst. coord.
        k(    1) = (   0.0000000   0.0000000   0.0000000), wk =   0.0029155
        k(    2) = (   0.0000000   0.0000000   0.1428571), wk =   0.0233236
        k(    3) = (   0.0000000   0.0000000   0.2857143), wk =   0.0233236
        k(    4) = (   0.0000000   0.0000000   0.4285714), wk =   0.0233236
        k(    5) = (   0.0000000   0.1428571   0.1428571), wk =   0.0174927
        k(    6) = (   0.0000000   0.1428571   0.2857143), wk =   0.0699708
        k(    7) = (   0.0000000   0.1428571   0.4285714), wk =   0.0699708
        k(    8) = (   0.0000000   0.1428571  -0.4285714), wk =   0.0699708
        k(    9) = (   0.0000000   0.1428571  -0.2857143), wk =   0.0699708
        k(   10) = (   0.0000000   0.1428571  -0.1428571), wk =   0.0349854
        k(   11) = (   0.0000000   0.2857143   0.2857143), wk =   0.0174927
        k(   12) = (   0.0000000   0.2857143   0.4285714), wk =   0.0699708
        k(   13) = (   0.0000000   0.2857143  -0.4285714), wk =   0.0699708
        k(   14) = (   0.0000000   0.2857143  -0.2857143), wk =   0.0349854
        k(   15) = (   0.0000000   0.4285714   0.4285714), wk =   0.0174927
        k(   16) = (   0.0000000   0.4285714  -0.4285714), wk =   0.0349854
        k(   17) = (   0.1428571   0.2857143   0.4285714), wk =   0.0699708
        k(   18) = (   0.1428571   0.2857143  -0.4285714), wk =   0.1399417
        k(   19) = (   0.1428571   0.4285714  -0.4285714), wk =   0.0699708
        k(   20) = (   0.1428571   0.4285714  -0.2857143), wk =   0.0699708

     Dense  grid:    14361 G-vectors     FFT dimensions: (  36,  36,  36)

     Dynamical RAM for                 wfc:       0.18 MB

     Dynamical RAM for     wfc (w. buffer):       7.40 MB

     Dynamical RAM for           str. fact:       0.22 MB

     Dynamical RAM for           local pot:       0.00 MB

     Dynamical RAM for          nlocal pot:       0.36 MB

     Dynamical RAM for                qrad:       2.27 MB

     Dynamical RAM for          rho,v,vnew:       1.73 MB

     Dynamical RAM for               rhoin:       0.58 MB

     Dynamical RAM for            rho*nmix:       3.51 MB

     Dynamical RAM for           G-vectors:       0.47 MB

     Dynamical RAM for          h,s,v(r/c):       0.12 MB

     Dynamical RAM for          <psi|beta>:       0.01 MB

     Dynamical RAM for                 psi:       0.72 MB

     Dynamical RAM for                hpsi:       0.72 MB

     Dynamical RAM for                spsi:       0.72 MB

     Dynamical RAM for      wfcinit/wfcrot:       0.36 MB

     Dynamical RAM for           addusdens:      20.60 MB

     Dynamical RAM for          addusforce:      20.61 MB

     Dynamical RAM for         addusstress:      22.19 MB

     Estimated static dynamical RAM per process >      14.42 MB

     Estimated max dynamical RAM per process >      40.11 MB

     Estimated total dynamical RAM >      80.23 MB

     Check: negative core charge=   -0.000002
     Generating pointlists ...
     new r_m :   0.1786 (alat units)  1.9083 (a.u.) for type    1
     new r_m :   0.1786 (alat units)  1.9083 (a.u.) for type    2

     Initial potential from superposition of free atoms

     starting charge      17.9968, renormalised to      18.0000
     Starting wfcs are   13 randomized atomic wfcs
     Checking if some PAW data can be deallocated... 
       PAW data deallocated on    1 nodes for type:  1
       PAW data deallocated on    1 nodes for type:  2

     total cpu time spent up to now is        2.1 secs

     per-process dynamical memory:    25.2 Mb

     Self-consistent Calculation

     iteration #  1     ecut=    50.00 Ry     beta= 0.30
     Davidson diagonalization with overlap

---- Real-time Memory Report at c_bands before calling an iterative solver
            63 MiB given to the printing process from OS
            24 MiB allocation reported by mallinfo(arena+hblkhd)
           152 MiB available memory on the node where the printing process lives
------------------
     ethr =  1.00E-02,  avg # of iterations =  3.3

     total cpu time spent up to now is        3.9 secs

     total energy              =    -452.45995074 Ry
     estimated scf accuracy    <       6.61444042 Ry

     total magnetization       =     1.34 Bohr mag/cell
     absolute magnetization    =     1.34 Bohr mag/cell

     iteration #  2     ecut=    50.00 Ry     beta= 0.30
     Davidson diagonalization with overlap

---- Real-time Memory Report at c_bands before calling an iterative solver
            75 MiB given to the printing process from OS
            47 MiB allocation reported by mallinfo(arena+hblkhd)
           106 MiB available memory on the node where the printing process lives
------------------
     ethr =  1.00E-02,  avg # of iterations =  1.0

     total cpu time spent up to now is        5.5 secs

     total energy              =    -453.87279163 Ry
     estimated scf accuracy    <       3.29266803 Ry

     total magnetization       =     0.57 Bohr mag/cell
     absolute magnetization    =     0.57 Bohr mag/cell

     iteration #  3     ecut=    50.00 Ry     beta= 0.30
     Davidson diagonalization with overlap

---- Real-time Memory Report at c_bands before calling an iterative solver
            76 MiB given to the printing process from OS
            47 MiB allocation reported by mallinfo(arena+hblkhd)
           105 MiB available memory on the node where the printing process lives
------------------
     ethr =  1.00E-02,  avg # of iterations =  1.0

     total cpu time spent up to now is        7.0 secs

     total energy              =    -453.93731849 Ry
     estimated scf accuracy    <       0.00375249 Ry

     total magnetization       =     0.01 Bohr mag/cell
     absolute magnetization    =     0.07 Bohr mag/cell

     iteration #  4     ecut=    50.00 Ry     beta= 0.30
     Davidson diagonalization with overlap

---- Real-time Memory Report at c_bands before calling an iterative solver
            77 MiB given to the printing process from OS
            48 MiB allocation reported by mallinfo(arena+hblkhd)
           104 MiB available memory on the node where the printing process lives
------------------
     ethr =  2.08E-05,  avg # of iterations =  5.2

     total cpu time spent up to now is        9.8 secs

     total energy              =    -453.96601973 Ry
     estimated scf accuracy    <       0.00792080 Ry

     total magnetization       =     0.00 Bohr mag/cell
     absolute magnetization    =     0.02 Bohr mag/cell

     iteration #  5     ecut=    50.00 Ry     beta= 0.30
     Davidson diagonalization with overlap

---- Real-time Memory Report at c_bands before calling an iterative solver
            77 MiB given to the printing process from OS
            48 MiB allocation reported by mallinfo(arena+hblkhd)
           103 MiB available memory on the node where the printing process lives
------------------
     ethr =  2.08E-05,  avg # of iterations =  1.0

     total cpu time spent up to now is       11.3 secs

     WARNING: integrated charge=    17.99999740, expected=    18.00000000

     total energy              =    -453.96591104 Ry
     estimated scf accuracy    <       0.00799463 Ry

     total magnetization       =     0.00 Bohr mag/cell
     absolute magnetization    =     0.02 Bohr mag/cell

     iteration #  6     ecut=    50.00 Ry     beta= 0.30
     Davidson diagonalization with overlap

---- Real-time Memory Report at c_bands before calling an iterative solver
            77 MiB given to the printing process from OS
            49 MiB allocation reported by mallinfo(arena+hblkhd)
           102 MiB available memory on the node where the printing process lives
------------------
     ethr =  2.08E-05,  avg # of iterations =  1.0

     total cpu time spent up to now is       12.9 secs

     WARNING: integrated charge=    17.99999634, expected=    18.00000000

     total energy              =    -453.96604040 Ry
     estimated scf accuracy    <       0.00193739 Ry

     total magnetization       =    -0.00 Bohr mag/cell
     absolute magnetization    =     0.01 Bohr mag/cell

     iteration #  7     ecut=    50.00 Ry     beta= 0.30
     Davidson diagonalization with overlap

---- Real-time Memory Report at c_bands before calling an iterative solver
            78 MiB given to the printing process from OS
            49 MiB allocation reported by mallinfo(arena+hblkhd)
           101 MiB available memory on the node where the printing process lives
------------------
     ethr =  1.08E-05,  avg # of iterations =  2.7

     total cpu time spent up to now is       14.6 secs

     WARNING: integrated charge=    17.99999504, expected=    18.00000000

     total energy              =    -453.96635091 Ry
     estimated scf accuracy    <       0.00012257 Ry

     total magnetization       =    -0.00 Bohr mag/cell
     absolute magnetization    =     0.01 Bohr mag/cell

     iteration #  8     ecut=    50.00 Ry     beta= 0.30
     Davidson diagonalization with overlap

---- Real-time Memory Report at c_bands before calling an iterative solver
            78 MiB given to the printing process from OS
            50 MiB allocation reported by mallinfo(arena+hblkhd)
           100 MiB available memory on the node where the printing process lives
------------------
     ethr =  6.81E-07,  avg # of iterations =  3.8

     total cpu time spent up to now is        5.1 secs

     WARNING: integrated charge=    17.99999757, expected=    18.00000000

     total energy              =    -453.96627193 Ry
     estimated scf accuracy    <       0.00057305 Ry

     total magnetization       =    -0.00 Bohr mag/cell
     absolute magnetization    =     0.01 Bohr mag/cell

     iteration #  9     ecut=    50.00 Ry     beta= 0.30
     Davidson diagonalization with overlap

---- Real-time Memory Report at c_bands before calling an iterative solver
            79 MiB given to the printing process from OS
            50 MiB allocation reported by mallinfo(arena+hblkhd)
            99 MiB available memory on the node where the printing process lives
------------------
     ethr =  6.81E-07,  avg # of iterations =  3.6

     total cpu time spent up to now is        7.0 secs

     total energy              =    -453.96628063 Ry
     estimated scf accuracy    <       0.00008542 Ry

     total magnetization       =    -0.00 Bohr mag/cell
     absolute magnetization    =     0.00 Bohr mag/cell

     iteration # 10     ecut=    50.00 Ry     beta= 0.30
     Davidson diagonalization with overlap

---- Real-time Memory Report at c_bands before calling an iterative solver
            79 MiB given to the printing process from OS
            51 MiB allocation reported by mallinfo(arena+hblkhd)
            98 MiB available memory on the node where the printing process lives
------------------
     ethr =  4.75E-07,  avg # of iterations =  2.2

     total cpu time spent up to now is        8.6 secs

     total energy              =    -453.96629137 Ry
     estimated scf accuracy    <       0.00002089 Ry

     total magnetization       =    -0.00 Bohr mag/cell
     absolute magnetization    =     0.00 Bohr mag/cell

     iteration # 11     ecut=    50.00 Ry     beta= 0.30
     Davidson diagonalization with overlap

---- Real-time Memory Report at c_bands before calling an iterative solver
            79 MiB given to the printing process from OS
            51 MiB allocation reported by mallinfo(arena+hblkhd)
            98 MiB available memory on the node where the printing process lives
------------------
     ethr =  1.16E-07,  avg # of iterations =  3.7

     total cpu time spent up to now is       10.5 secs

     total energy              =    -453.96630003 Ry
     estimated scf accuracy    <       0.00000105 Ry

     total magnetization       =    -0.00 Bohr mag/cell
     absolute magnetization    =     0.00 Bohr mag/cell

     iteration # 12     ecut=    50.00 Ry     beta= 0.30
     Davidson diagonalization with overlap

---- Real-time Memory Report at c_bands before calling an iterative solver
            79 MiB given to the printing process from OS
            51 MiB allocation reported by mallinfo(arena+hblkhd)
            98 MiB available memory on the node where the printing process lives
------------------
     ethr =  5.84E-09,  avg # of iterations =  4.0

     total cpu time spent up to now is       12.8 secs

     total energy              =    -453.96630054 Ry
     estimated scf accuracy    <       0.00000167 Ry

     total magnetization       =    -0.00 Bohr mag/cell
     absolute magnetization    =     0.00 Bohr mag/cell

     iteration # 13     ecut=    50.00 Ry     beta= 0.30
     Davidson diagonalization with overlap

---- Real-time Memory Report at c_bands before calling an iterative solver
            79 MiB given to the printing process from OS
            51 MiB allocation reported by mallinfo(arena+hblkhd)
            98 MiB available memory on the node where the printing process lives
------------------
     ethr =  5.84E-09,  avg # of iterations =  1.0

     total cpu time spent up to now is       14.3 secs

     total energy              =    -453.96630048 Ry
     estimated scf accuracy    <       0.00000054 Ry

     total magnetization       =    -0.00 Bohr mag/cell
     absolute magnetization    =     0.00 Bohr mag/cell

     iteration # 14     ecut=    50.00 Ry     beta= 0.30
     Davidson diagonalization with overlap

---- Real-time Memory Report at c_bands before calling an iterative solver
            79 MiB given to the printing process from OS
            51 MiB allocation reported by mallinfo(arena+hblkhd)
            98 MiB available memory on the node where the printing process lives
------------------
     ethr =  3.03E-09,  avg # of iterations =  2.0

     total cpu time spent up to now is       16.1 secs

     total energy              =    -453.96630055 Ry
     estimated scf accuracy    <       0.00000003 Ry

     total magnetization       =    -0.00 Bohr mag/cell
     absolute magnetization    =     0.00 Bohr mag/cell

     iteration # 15     ecut=    50.00 Ry     beta= 0.30
     Davidson diagonalization with overlap

---- Real-time Memory Report at c_bands before calling an iterative solver
            79 MiB given to the printing process from OS
            51 MiB allocation reported by mallinfo(arena+hblkhd)
            98 MiB available memory on the node where the printing process lives
------------------
     ethr =  1.89E-10,  avg # of iterations =  3.8

     Magnetic moment per site  (integrated on atomic sphere of radius R)
     atom   1 (R=0.179)  charge=  2.7352  magn=  0.0000
     atom   2 (R=0.179)  charge= 11.0510  magn= -0.0000

     total cpu time spent up to now is       18.0 secs

     End of self-consistent calculation

 ------ SPIN UP ------------


          k = 0.0000 0.0000 0.0000 (  1837 PWs)   bands (ev):

    -8.0626  -8.0626  -8.0626  -7.9847  -7.9847  -6.0080   6.7256   6.7256
     6.7256   7.2520  10.4496  10.4496  10.4496

     occupation numbers 
     1.0000   1.0000   1.0000   1.0000   1.0000   1.0000   1.0000   1.0000
     1.0000   0.0000   0.0000   0.0000   0.0000

          k =-0.1429 0.1429 0.1429 (  1835 PWs)   bands (ev):

    -8.0797  -8.0580  -8.0580  -7.9848  -7.9848  -5.7708   4.4373   6.4275
     6.4275   8.3584  10.8878  10.8878  11.1154

     occupation numbers 
     1.0000   1.0000   1.0000   1.0000   1.0000   1.0000   1.0000   1.0000
     1.0000   0.0000   0.0000   0.0000   0.0000

          k =-0.2857 0.2857 0.2857 (  1841 PWs)   bands (ev):

    -8.1139  -8.0492  -8.0492  -7.9835  -7.9835  -5.1265   2.0187   5.9289
     5.9289   8.0697  11.3930  11.3930  13.2807

     occupation numbers 
     1.0000   1.0000   1.0000   1.0000   1.0000   1.0000   1.0000   1.0000
     1.0000   0.0000   0.0000   0.0000   0.0000

          k =-0.4286 0.4286 0.4286 (  1838 PWs)   bands (ev):

    -8.1383  -8.0439  -8.0439  -7.9806  -7.9806  -4.3874   0.3404   5.6213
     5.6213   7.7625  11.3807  11.3807  14.5424

     occupation numbers 
     1.0000   1.0000   1.0000   1.0000   1.0000   1.0000   1.0000   1.0000
     1.0000   0.0000   0.0000   0.0000   0.0000

          k = 0.0000 0.0000 0.2857 (  1836 PWs)   bands (ev):

    -8.0893  -8.0536  -8.0536  -7.9885  -7.9820  -5.6918   4.4238   5.9130
     5.9130   9.2492   9.7565  11.6641  11.6641

     occupation numbers 
     1.0000   1.0000   1.0000   1.0000   1.0000   1.0000   1.0000   1.0000
     1.0000   0.0000   0.0000   0.0000   0.0000

          k =-0.1429 0.1429 0.4286 (  1830 PWs)   bands (ev):

    -8.1161  -8.0460  -8.0441  -7.9911  -7.9796  -5.1790   2.5943   5.2622
     5.3803   9.2710  10.2927  12.3701  12.4640

     occupation numbers 
     1.0000   1.0000   1.0000   1.0000   1.0000   1.0000   1.0000   1.0000
     1.0000   0.0000   0.0000   0.0000   0.0000

          k =-0.2857 0.2857 0.5714 (  1824 PWs)   bands (ev):

    -8.1391  -8.0412  -8.0378  -7.9885  -7.9782  -4.4283   0.7970   4.5685
     5.1590   9.0082  11.0095  12.4097  13.2490

     occupation numbers 
     1.0000   1.0000   1.0000   1.0000   1.0000   1.0000   1.0000   1.0000
     1.0000   0.0000   0.0000   0.0000   0.0000

          k = 0.5714-0.5714-0.2857 (  1816 PWs)   bands (ev):

    -8.1449  -8.0403  -8.0376  -7.9836  -7.9808  -4.1034   0.1973   4.1860
     5.3215   8.9328  11.1800  12.0528  14.8374

     occupation numbers 
     1.0000   1.0000   1.0000   1.0000   1.0000   1.0000   1.0000   1.0000
     1.0000   0.0000   0.0000   0.0000   0.0000

          k = 0.4286-0.4286-0.1429 (  1826 PWs)   bands (ev):

    -8.1300  -8.0433  -8.0425  -7.9859  -7.9817  -4.6847   1.3334   4.2703
     5.8011   9.1205  11.4991  11.7061  13.2469

     occupation numbers 
     1.0000   1.0000   1.0000   1.0000   1.0000   1.0000   1.0000   1.0000
     1.0000   0.0000   0.0000   0.0000   0.0000

          k = 0.2857-0.2857-0.0000 (  1833 PWs)   bands (ev):

    -8.1023  -8.0528  -8.0492  -7.9871  -7.9826  -5.3954   3.1480   5.0429
     6.3482   9.1602  10.9666  11.0808  12.3072

     occupation numbers 
     1.0000   1.0000   1.0000   1.0000   1.0000   1.0000   1.0000   1.0000
     1.0000   0.0000   0.0000   0.0000   0.0000

          k = 0.0000 0.0000 0.5714 (  1824 PWs)   bands (ev):

    -8.1375  -8.0328  -8.0328  -7.9992  -7.9759  -4.8216   2.0690   4.7782
     4.7782   8.4953   9.7720  13.9610  13.9610

     occupation numbers 
     1.0000   1.0000   1.0000   1.0000   1.0000   1.0000   1.0000   1.0000
     1.0000   0.0000   0.0000   0.0000   0.0000

          k =-0.1429 0.1429 0.7143 (  1823 PWs)   bands (ev):

    -8.1543  -8.0276  -8.0249  -8.0007  -7.9744  -4.1784   0.8835   3.9008
     4.5020   8.7049   9.9890  13.6609  14.4649

     occupation numbers 
     1.0000   1.0000   1.0000   1.0000   1.0000   1.0000   1.0000   1.0000
     1.0000   0.0000   0.0000   0.0000   0.0000

          k = 0.7143-0.7143-0.1429 (  1821 PWs)   bands (ev):

    -8.1568  -8.0311  -8.0244  -7.9946  -7.9780  -3.7136   0.2073   3.0220
     4.6517   8.8726  11.9441  13.5199  13.9654

     occupation numbers 
     1.0000   1.0000   1.0000   1.0000   1.0000   1.0000   1.0000   1.0000
     1.0000   0.0000   0.0000   0.0000   0.0000

          k = 0.5714-0.5714 0.0000 (  1814 PWs)   bands (ev):

    -8.1467  -8.0367  -8.0317  -7.9866  -7.9840  -4.0328   0.6331   2.9824
     5.1736   9.2865  12.6107  13.0009  13.2690

     occupation numbers 
     1.0000   1.0000   1.0000   1.0000   1.0000   1.0000   1.0000   1.0000
     1.0000   0.0000   0.0000   0.0000   0.0000

          k = 0.0000 0.0000 0.8571 (  1796 PWs)   bands (ev):

    -8.1692  -8.0156  -8.0156  -8.0086  -7.9710  -3.7413   0.2309   4.1268
     4.1268   8.1274   8.6366  16.3413  16.3413

     occupation numbers 
     1.0000   1.0000   1.0000   1.0000   1.0000   1.0000   1.0000   1.0000
     1.0000   0.0000   0.0000   0.0000   0.0000

          k = 0.8571-0.8571-0.0000 (  1804 PWs)   bands (ev):

    -8.1691  -8.0194  -8.0154  -8.0048  -7.9728  -3.4931  -0.0397   3.4013
     4.1831   8.4047   9.5463  15.7672  15.9947

     occupation numbers 
     1.0000   1.0000   1.0000   1.0000   1.0000   1.0000   1.0000   1.0000
     1.0000   0.0000   0.0000   0.0000   0.0000

          k = 0.0000 0.2857 0.5714 (  1838 PWs)   bands (ev):

    -8.1374  -8.0386  -8.0344  -7.9936  -7.9780  -4.5933   1.5083   3.9361
     5.1075   9.9167  10.3962  11.9433  13.7014

     occupation numbers 
     1.0000   1.0000   1.0000   1.0000   1.0000   1.0000   1.0000   1.0000
     1.0000   0.0000   0.0000   0.0000   0.0000

          k = 0.8571-0.5714-0.2857 (  1806 PWs)   bands (ev):

    -8.1504  -8.0366  -8.0278  -7.9911  -7.9795  -3.9366   0.4271   3.3256
     4.6393  10.0240  10.9807  12.5908  14.2709

     occupation numbers 
     1.0000   1.0000   1.0000   1.0000   1.0000   1.0000   1.0000   1.0000
     1.0000   0.0000   0.0000   0.0000   0.0000

          k = 1.0000-0.7143-0.1429 (  1817 PWs)   bands (ev):

    -8.1625  -8.0262  -8.0187  -8.0004  -7.9752  -3.6573   0.2317   3.4551
     3.8631   9.5891   9.9262  13.4111  15.5967

     occupation numbers 
     1.0000   1.0000   1.0000   1.0000   1.0000   1.0000   1.0000   1.0000
     1.0000   0.0000   0.0000   0.0000   0.0000

          k = 0.8571-0.5714 0.0000 (  1823 PWs)   bands (ev):

    -8.1592  -8.0318  -8.0193  -7.9949  -7.9793  -3.5270   0.1328   2.9090
     3.9467  10.0355  11.9470  12.7607  13.4391

     occupation numbers 
     1.0000   1.0000   1.0000   1.0000   1.0000   1.0000   1.0000   1.0000
     1.0000   0.0000   0.0000   0.0000   0.0000

 ------ SPIN DOWN ----------


          k = 0.0000 0.0000 0.0000 (  1837 PWs)   bands (ev):

    -8.0625  -8.0625  -8.0625  -7.9846  -7.9846  -6.0080   6.7257   6.7257
     6.7257   7.2518  10.4494  10.4494  10.4494

     occupation numbers 
     1.0000   1.0000   1.0000   1.0000   1.0000   1.0000   1.0000   1.0000
     1.0000   0.0000   0.0000   0.0000   0.0000

          k =-0.1429 0.1429 0.1429 (  1835 PWs)   bands (ev):

    -8.0796  -8.0580  -8.0580  -7.9847  -7.9847  -5.7707   4.4373   6.4276
     6.4276   8.3582  10.8876  10.8876  11.1153

     occupation numbers 
     1.0000   1.0000   1.0000   1.0000   1.0000   1.0000   1.0000   1.0000
     1.0000   0.0000   0.0000   0.0000   0.0000

          k =-0.2857 0.2857 0.2857 (  1841 PWs)   bands (ev):

    -8.1139  -8.0492  -8.0492  -7.9834  -7.9834  -5.1265   2.0186   5.9290
     5.9290   8.0695  11.3928  11.3928  13.2806

     occupation numbers 
     1.0000   1.0000   1.0000   1.0000   1.0000   1.0000   1.0000   1.0000
     1.0000   0.0000   0.0000   0.0000   0.0000

          k =-0.4286 0.4286 0.4286 (  1838 PWs)   bands (ev):

    -8.1382  -8.0439  -8.0439  -7.9806  -7.9806  -4.3873   0.3403   5.6214
     5.6214   7.7623  11.3805  11.3805  14.5420

     occupation numbers 
     1.0000   1.0000   1.0000   1.0000   1.0000   1.0000   1.0000   1.0000
     1.0000   0.0000   0.0000   0.0000   0.0000

          k = 0.0000 0.0000 0.2857 (  1836 PWs)   bands (ev):

    -8.0892  -8.0535  -8.0535  -7.9885  -7.9820  -5.6918   4.4238   5.9130
     5.9130   9.2491   9.7564  11.6640  11.6640

     occupation numbers 
     1.0000   1.0000   1.0000   1.0000   1.0000   1.0000   1.0000   1.0000
     1.0000   0.0000   0.0000   0.0000   0.0000

          k =-0.1429 0.1429 0.4286 (  1830 PWs)   bands (ev):

    -8.1161  -8.0459  -8.0440  -7.9910  -7.9796  -5.1790   2.5943   5.2623
     5.3804   9.2708  10.2925  12.3700  12.4639

     occupation numbers 
     1.0000   1.0000   1.0000   1.0000   1.0000   1.0000   1.0000   1.0000
     1.0000   0.0000   0.0000   0.0000   0.0000

          k =-0.2857 0.2857 0.5714 (  1824 PWs)   bands (ev):

    -8.1391  -8.0412  -8.0378  -7.9885  -7.9782  -4.4282   0.7969   4.5685
     5.1591   9.0080  11.0093  12.4096  13.2488

     occupation numbers 
     1.0000   1.0000   1.0000   1.0000   1.0000   1.0000   1.0000   1.0000
     1.0000   0.0000   0.0000   0.0000   0.0000

          k = 0.5714-0.5714-0.2857 (  1816 PWs)   bands (ev):

    -8.1448  -8.0402  -8.0376  -7.9836  -7.9808  -4.1033   0.1972   4.1860
     5.3215   8.9327  11.1798  12.0526  14.8372

     occupation numbers 
     1.0000   1.0000   1.0000   1.0000   1.0000   1.0000   1.0000   1.0000
     1.0000   0.0000   0.0000   0.0000   0.0000

          k = 0.4286-0.4286-0.1429 (  1826 PWs)   bands (ev):

    -8.1299  -8.0432  -8.0425  -7.9859  -7.9817  -4.6846   1.3334   4.2703
     5.8012   9.1204  11.4989  11.7059  13.2468

     occupation numbers 
     1.0000   1.0000   1.0000   1.0000   1.0000   1.0000   1.0000   1.0000
     1.0000   0.0000   0.0000   0.0000   0.0000

          k = 0.2857-0.2857-0.0000 (  1833 PWs)   bands (ev):

    -8.1022  -8.0528  -8.0492  -7.9871  -7.9826  -5.3954   3.1480   5.0429
     6.3484   9.1600  10.9665  11.0806  12.3070

     occupation numbers 
     1.0000   1.0000   1.0000   1.0000   1.0000   1.0000   1.0000   1.0000
     1.0000   0.0000   0.0000   0.0000   0.0000

          k = 0.0000 0.0000 0.5714 (  1824 PWs)   bands (ev):

    -8.1375  -8.0328  -8.0328  -7.9991  -7.9759  -4.8216   2.0690   4.7782
     4.7782   8.4951   9.7718  13.9609  13.9609

     occupation numbers 
     1.0000   1.0000   1.0000   1.0000   1.0000   1.0000   1.0000   1.0000
     1.0000   0.0000   0.0000   0.0000   0.0000

          k =-0.1429 0.1429 0.7143 (  1823 PWs)   bands (ev):

    -8.1543  -8.0275  -8.0248  -8.0007  -7.9743  -4.1784   0.8835   3.9008
     4.5020   8.7047   9.9888  13.6608  14.4648

     occupation numbers 
     1.0000   1.0000   1.0000   1.0000   1.0000   1.0000   1.0000   1.0000
     1.0000   0.0000   0.0000   0.0000   0.0000

          k = 0.7143-0.7143-0.1429 (  1821 PWs)   bands (ev):

    -8.1567  -8.0311  -8.0244  -7.9946  -7.9779  -3.7135   0.2072   3.0220
     4.6518   8.8724  11.9440  13.5197  13.9652

     occupation numbers 
     1.0000   1.0000   1.0000   1.0000   1.0000   1.0000   1.0000   1.0000
     1.0000   0.0000   0.0000   0.0000   0.0000

          k = 0.5714-0.5714 0.0000 (  1814 PWs)   bands (ev):

    -8.1466  -8.0367  -8.0316  -7.9865  -7.9840  -4.0327   0.6331   2.9823
     5.1737   9.2863  12.6106  13.0007  13.2689

     occupation numbers 
     1.0000   1.0000   1.0000   1.0000   1.0000   1.0000   1.0000   1.0000
     1.0000   0.0000   0.0000   0.0000   0.0000

          k = 0.0000 0.0000 0.8571 (  1796 PWs)   bands (ev):

    -8.1691  -8.0156  -8.0156  -8.0086  -7.9710  -3.7412   0.2308   4.1268
     4.1268   8.1271   8.6364  16.3412  16.3412

     occupation numbers 
     1.0000   1.0000   1.0000   1.0000   1.0000   1.0000   1.0000   1.0000
     1.0000   0.0000   0.0000   0.0000   0.0000

          k = 0.8571-0.8571-0.0000 (  1804 PWs)   bands (ev):

    -8.1691  -8.0194  -8.0153  -8.0048  -7.9727  -3.4930  -0.0398   3.4013
     4.1831   8.4044   9.5461  15.7670  15.9945

     occupation numbers 
     1.0000   1.0000   1.0000   1.0000   1.0000   1.0000   1.0000   1.0000
     1.0000   0.0000   0.0000   0.0000   0.0000

          k = 0.0000 0.2857 0.5714 (  1838 PWs)   bands (ev):

    -8.1374  -8.0386  -8.0344  -7.9936  -7.9780  -4.5932   1.5082   3.9361
     5.1075   9.9166  10.3960  11.9431  13.7012

     occupation numbers 
     1.0000   1.0000   1.0000   1.0000   1.0000   1.0000   1.0000   1.0000
     1.0000   0.0000   0.0000   0.0000   0.0000

          k = 0.8571-0.5714-0.2857 (  1806 PWs)   bands (ev):

    -8.1504  -8.0365  -8.0277  -7.9910  -7.9795  -3.9365   0.4270   3.3255
     4.6393  10.0239  10.9805  12.5906  14.2708

     occupation numbers 
     1.0000   1.0000   1.0000   1.0000   1.0000   1.0000   1.0000   1.0000
     1.0000   0.0000   0.0000   0.0000   0.0000

          k = 1.0000-0.7143-0.1429 (  1817 PWs)   bands (ev):

    -8.1624  -8.0261  -8.0186  -8.0003  -7.9751  -3.6572   0.2317   3.4551
     3.8631   9.5888   9.9260  13.4109  15.5965

     occupation numbers 
     1.0000   1.0000   1.0000   1.0000   1.0000   1.0000   1.0000   1.0000
     1.0000   0.0000   0.0000   0.0000   0.0000

          k = 0.8571-0.5714 0.0000 (  1823 PWs)   bands (ev):

    -8.1591  -8.0317  -8.0193  -7.9949  -7.9793  -3.5269   0.1328   2.9089
     3.9467  10.0353  11.9468  12.7605  13.4389

     occupation numbers 
     1.0000   1.0000   1.0000   1.0000   1.0000   1.0000   1.0000   1.0000
     1.0000   0.0000   0.0000   0.0000   0.0000

     the Fermi energy is     7.0345 ev

!    total energy              =    -453.96630058 Ry

     total all-electron energy =     -8410.098320 Ry
     estimated scf accuracy    <          8.6E-09 Ry
     smearing contrib. (-TS)   =       0.00000000 Ry
     internal energy E=F+TS    =    -453.96630058 Ry

     The total energy is F=E-TS. E is the sum of the following terms:
     one-electron contribution =    -119.08677550 Ry
     hartree contribution      =      75.18484722 Ry
     xc contribution           =     -49.72403920 Ry
     ewald contribution        =     -93.01011537 Ry
     one-center paw contrib.   =    -267.33021774 Ry
      -> PAW hartree energy AE =       7.74669257 Ry
      -> PAW hartree energy PS =      -7.72759488 Ry
      -> PAW xc energy AE      =    -167.12916239 Ry
      -> PAW xc energy PS      =      11.02558904 Ry
      -> total E_H with PAW    =      75.20394491 Ry
      -> total E_XC with PAW   =    -205.82761255 Ry

     total magnetization       =    -0.00 Bohr mag/cell
     absolute magnetization    =     0.00 Bohr mag/cell

     convergence has been achieved in  15 iterations

     Forces acting on atoms (cartesian axes, Ry/au):

     atom    1 type  1   force =     0.00000000    0.00000000    0.00000000
     atom    2 type  2   force =     0.00000000    0.00000000    0.00000000
     The non-local contrib.  to forces
     atom    1 type  1   force =     0.00000000    0.00000000    0.00000000
     atom    2 type  2   force =     0.00000000   -0.00000000    0.00000000
     The ionic contribution  to forces
     atom    1 type  1   force =     0.00000000    0.00000000   -0.00000000
     atom    2 type  2   force =     0.00000000    0.00000000   -0.00000000
     The local contribution  to forces
     atom    1 type  1   force =    -0.00000000   -0.00000000   -0.00000000
     atom    2 type  2   force =     0.00000000    0.00000000    0.00000000
     The core correction contribution to forces
     atom    1 type  1   force =    -0.00000000    0.00000000   -0.00000000
     atom    2 type  2   force =     0.00000000    0.00000000    0.00000000
     The Hubbard contrib.    to forces
     atom    1 type  1   force =     0.00000000    0.00000000    0.00000000
     atom    2 type  2   force =     0.00000000    0.00000000    0.00000000
     The SCF correction term to forces
     atom    1 type  1   force =     0.00000000    0.00000000    0.00000000
     atom    2 type  2   force =     0.00000000   -0.00000000   -0.00000000

     Total force =     0.000000     Total SCF correction =     0.000000


     Computing stress (Cartesian axis) and pressure

          total   stress  (Ry/bohr**3)                   (kbar)     P=       34.28
   0.00023303   0.00000000   0.00000000           34.28        0.00        0.00
   0.00000000   0.00023303  -0.00000000            0.00       34.28       -0.00
   0.00000000  -0.00000000   0.00023303            0.00       -0.00       34.28

     kinetic stress (kbar)   6896.50     -0.00      0.00
                               -0.00   6896.50      0.00
                                0.00      0.00   6896.50

     local   stress (kbar)   -739.34      0.00     -0.00
                                0.00   -739.34     -0.00
                               -0.00     -0.00   -739.34

     nonloc. stress (kbar)   1300.30      0.00      0.00
                                0.00   1300.30      0.00
                                0.00      0.00   1300.30

     hartree stress (kbar)  12092.10      0.00      0.00
                                0.00  12092.10      0.00
                                0.00      0.00  12092.10

     exc-cor stress (kbar)   6458.24     -0.00     -0.00
                               -0.00   6458.24      0.00
                               -0.00      0.00   6458.24

     corecor stress (kbar) -11014.56      0.00     -0.00
                                0.00 -11014.56     -0.00
                               -0.00     -0.00 -11014.56

     ewald   stress (kbar) -14958.97      0.00      0.00
                                0.00 -14958.97      0.00
                                0.00      0.00 -14958.97

     hubbard stress (kbar)      0.00      0.00      0.00
                                0.00      0.00      0.00
                                0.00      0.00      0.00

     DFT-D   stress (kbar)      0.00      0.00      0.00
                                0.00      0.00      0.00
                                0.00      0.00      0.00

     XDM     stress (kbar)      0.00      0.00      0.00
                                0.00      0.00      0.00
                                0.00      0.00      0.00

     dft-nl  stress (kbar)      0.00      0.00      0.00
                                0.00      0.00      0.00
                                0.00      0.00      0.00

     TS-vdW  stress (kbar)      0.00      0.00      0.00
                                0.00      0.00      0.00
                                0.00      0.00      0.00


                                0.00      0.00      0.00
                                0.00      0.00      0.00


                                0.00      0.00      0.00


     Writing all to output data dir ./outputs/gaas.save/

     init_run     :      1.36s CPU      1.74s WALL (       1 calls)
     electrons    :     24.92s CPU     16.05s WALL (       1 calls)
     forces       :      0.16s CPU      0.18s WALL (       1 calls)
     stress       :      0.59s CPU      0.64s WALL (       1 calls)

     Called by init_run:
     wfcinit      :      0.37s CPU      0.42s WALL (       1 calls)
     wfcinit:atom :      0.01s CPU      0.01s WALL (      40 calls)
     wfcinit:wfcr :      0.33s CPU      0.37s WALL (      40 calls)
     potinit      :      0.37s CPU      0.46s WALL (       1 calls)
     hinit0       :      0.57s CPU      0.76s WALL (       1 calls)

     Called by electrons:
     c_bands      :     14.96s CPU      4.93s WALL (      15 calls)
     sum_band     :      4.03s CPU      4.72s WALL (      15 calls)
     v_of_rho     :      0.46s CPU      0.52s WALL (      16 calls)
     v_h          :      0.01s CPU      0.01s WALL (      16 calls)
     v_xc         :      0.51s CPU      0.57s WALL (      18 calls)
     newd         :      0.50s CPU      0.56s WALL (      16 calls)
     PAW_pot      :      5.27s CPU      5.63s WALL (      16 calls)
     mix_rho      :      0.06s CPU      0.07s WALL (      15 calls)

     Called by c_bands:
     init_us_2    :      0.39s CPU      0.43s WALL (    1320 calls)
     init_us_2:cp :      0.39s CPU      0.43s WALL (    1320 calls)
     cegterg      :     14.36s CPU      4.25s WALL (     600 calls)

     Called by sum_band:
     sum_band:wei :      0.01s CPU      0.01s WALL (      15 calls)
     sum_band:loo :      2.95s CPU      3.56s WALL (      15 calls)
     sum_band:buf :      0.02s CPU      0.02s WALL (     600 calls)
     sum_band:ini :      0.18s CPU      0.20s WALL (     600 calls)
     sum_band:cal :      0.21s CPU      0.29s WALL (     600 calls)
     sum_band:bec :      0.01s CPU      0.01s WALL (     600 calls)
     addusdens    :      1.01s CPU      1.08s WALL (      15 calls)
     addusd:skk   :      0.00s CPU      0.00s WALL (      30 calls)
     addusd:dgemm :      0.22s CPU      0.23s WALL (      60 calls)
     addusd:qvan2 :      0.74s CPU      0.80s WALL (      60 calls)

     Called by *egterg:
     cdiaghg      :      0.59s CPU      0.63s WALL (    2174 calls)
     cegterg:over :      0.63s CPU      0.67s WALL (    1574 calls)
     cegterg:upda :      0.48s CPU      0.51s WALL (    1574 calls)
     cegterg:last :      0.26s CPU      0.28s WALL (     639 calls)
     h_psi        :     11.75s CPU      1.42s WALL (    2214 calls)
     s_psi        :      0.43s CPU      0.47s WALL (    2214 calls)
     g_psi        :      0.16s CPU      0.17s WALL (    1574 calls)

     Called by h_psi:
     h_psi:calbec :      0.51s CPU      0.56s WALL (    2214 calls)
     vloc_psi     :     10.75s CPU      0.34s WALL (    2214 calls)
     add_vuspsi   :      0.44s CPU      0.47s WALL (    2214 calls)

     General routines
     calbec       :      0.76s CPU      0.91s WALL (    3014 calls)
     fft          :      0.45s CPU      0.56s WALL (     378 calls)
     ffts         :      0.01s CPU      0.01s WALL (      30 calls)
     fftw         :     11.61s CPU      1.54s WALL (   48700 calls)

     Parallel routines

     PAW routines
     PAW_pot      :      5.27s CPU      5.63s WALL (      16 calls)
     PAW_symme    :      0.01s CPU      0.01s WALL (      31 calls)

     PWSCF        :     27.19s CPU     19.04s WALL


   This run was terminated on:   6:14:30   3Jan2025            

=------------------------------------------------------------------------------=
   JOB DONE.
=------------------------------------------------------------------------------=
