
     Program PWSCF v.7.0 starts on  3Jan2025 at  6:22:31 

     This program is part of the open-source Quantum ESPRESSO suite
     for quantum simulation of materials; please cite
         "P. Giannozzi et al., J. Phys.:Condens. Matter 21 395502 (2009);
         "P. Giannozzi et al., J. Phys.:Condens. Matter 29 465901 (2017);
         "P. Giannozzi et al., J. Chem. Phys. 152 154105 (2020);
          URL http://www.quantum-espresso.org", 
     in publications or presentations arising from this work. More details at
     http://www.quantum-espresso.org/quote

     Parallel version (MPI & OpenMP), running on       2 processor cores
     Number of MPI processes:                 2
     Threads/MPI process:                     1

     MPI processes distributed on     1 nodes
     R & G space division:  proc/nbgrp/npool/nimage =       2
     169 MiB available memory on the printing compute node when the environment starts

     Reading input from pw.scf.w_soc.in

     Current dimensions of program PWSCF are:
     Max number of different atomic species (ntypx) = 10
     Max number of k-points (npk) =  40000
     Max angular momentum in pseudopotentials (lmaxx) =  4
     Message from routine volume:
     axis vectors are left-handed
     file Ga.rel-pbe-dn-kjpaw_psl.1.0.0.UPF: wavefunction(s)  4S renormalized

     IMPORTANT: XC functional enforced from input :
     Exchange-correlation= PBE
                           (   1   4   3   4   0   0   0)
     Any further DFT definition will be discarded
     Please, verify this is what you really want

     Message from routine setup:
     using ibrav=0 with symmetry is DISCOURAGED, use correct ibrav instead

     Subspace diagonalization in iterative solution of the eigenvalue problem:
     a serial algorithm will be used


     Parallelization info
     --------------------
     sticks:   dense  smooth     PW     G-vecs:    dense   smooth      PW
     Min         384     384    120                 7179     7179    1210
     Max         385     385    121                 7182     7182    1211
     Sum         769     769    241                14361    14361    2421

     Using Slab Decomposition



     bravais-lattice index     =            0
     lattice parameter (alat)  =      10.6839  a.u.
     unit-cell volume          =     304.8842 (a.u.)^3
     number of atoms/cell      =            2
     number of atomic types    =            2
     number of electrons       =        18.00
     number of Kohn-Sham states=           26
     kinetic-energy cutoff     =      50.0000  Ry
     charge density cutoff     =     200.0000  Ry
     scf convergence threshold =      1.0E-08
     mixing beta               =       0.3000
     number of iterations used =            8  plain     mixing
     Exchange-correlation= PBE
                           (   1   4   3   4   0   0   0)
     Non magnetic calculation with spin-orbit


     celldm(1)=  10.683945  celldm(2)=   0.000000  celldm(3)=   0.000000
     celldm(4)=   0.000000  celldm(5)=   0.000000  celldm(6)=   0.000000

     crystal axes: (cart. coord. in units of alat)
               a(1) = (   0.500000   0.500000   0.000000 )  
               a(2) = (   0.500000   0.000000   0.500000 )  
               a(3) = (   0.000000   0.500000   0.500000 )  

     reciprocal axes: (cart. coord. in units 2 pi/alat)
               b(1) = (  1.000000  1.000000 -1.000000 )  
               b(2) = (  1.000000 -1.000000  1.000000 )  
               b(3) = ( -1.000000  1.000000  1.000000 )  


     PseudoPot. # 1 for As read from file:
     ../Pseudopotentials/As.rel-pbe-n-kjpaw_psl.1.0.0.UPF
     MD5 check sum: 64fce746f52c6128fdf7901f08bfcabb
     Pseudo is Projector augmented-wave + core cor, Zval =  5.0
     Generated using &quot;atomic&quot; code by A. Dal Corso  v.6.3
     Shape of augmentation charge: PSQ
     Using radial grid of 1209 points,  6 beta functions with: 
                l(1) =   0
                l(2) =   0
                l(3) =   1
                l(4) =   1
                l(5) =   1
                l(6) =   1
     Q(r) pseudized with 0 coefficients 


     PseudoPot. # 2 for Ga read from file:
     ../Pseudopotentials/Ga.rel-pbe-dn-kjpaw_psl.1.0.0.UPF
     MD5 check sum: f57628226c2638e1c4b61aff16a21354
     Pseudo is Projector augmented-wave + core cor, Zval = 13.0
     Generated using &quot;atomic&quot; code by A. Dal Corso  v.6.3
     Shape of augmentation charge: PSQ
     Using radial grid of 1205 points, 10 beta functions with: 
                l(1) =   0
                l(2) =   0
                l(3) =   1
                l(4) =   1
                l(5) =   1
                l(6) =   1
                l(7) =   2
                l(8) =   2
                l(9) =   2
               l(10) =   2
     Q(r) pseudized with 0 coefficients 


     atomic species   valence    mass     pseudopotential
        As             5.00    74.92100     As( 1.00)
        Ga            13.00    69.72300     Ga( 1.00)

     24 Sym. Ops. (no inversion) found


                                    s                        frac. trans.

      isym =  1     identity                                     

 cryst.   s( 1) = (     1          0          0      )
                  (     0          1          0      )
                  (     0          0          1      )

 cart.    s( 1) = (  1.0000000  0.0000000  0.0000000 )
                  (  0.0000000  1.0000000  0.0000000 )
                  (  0.0000000  0.0000000  1.0000000 )


      isym =  2     180 deg rotation - cart. axis [0,0,1]        

 cryst.   s( 2) = (    -1          0          0      )
                  (    -1          0          1      )
                  (    -1          1          0      )

 cart.    s( 2) = ( -1.0000000  0.0000000  0.0000000 )
                  (  0.0000000 -1.0000000  0.0000000 )
                  (  0.0000000  0.0000000  1.0000000 )


      isym =  3     180 deg rotation - cart. axis [0,1,0]        

 cryst.   s( 3) = (     0         -1          1      )
                  (     0         -1          0      )
                  (     1         -1          0      )

 cart.    s( 3) = ( -1.0000000  0.0000000  0.0000000 )
                  (  0.0000000  1.0000000  0.0000000 )
                  (  0.0000000  0.0000000 -1.0000000 )


      isym =  4     180 deg rotation - cart. axis [1,0,0]        

 cryst.   s( 4) = (     0          1         -1      )
                  (     1          0         -1      )
                  (     0          0         -1      )

 cart.    s( 4) = (  1.0000000  0.0000000  0.0000000 )
                  (  0.0000000 -1.0000000  0.0000000 )
                  (  0.0000000  0.0000000 -1.0000000 )


      isym =  5     120 deg rotation - cart. axis [-1,-1,-1]     

 cryst.   s( 5) = (     0          1          0      )
                  (     0          0          1      )
                  (     1          0          0      )

 cart.    s( 5) = (  0.0000000  1.0000000  0.0000000 )
                  (  0.0000000  0.0000000  1.0000000 )
                  (  1.0000000  0.0000000  0.0000000 )


      isym =  6     120 deg rotation - cart. axis [-1,1,1]       

 cryst.   s( 6) = (     0         -1          0      )
                  (     1         -1          0      )
                  (     0         -1          1      )

 cart.    s( 6) = (  0.0000000 -1.0000000  0.0000000 )
                  (  0.0000000  0.0000000  1.0000000 )
                  ( -1.0000000  0.0000000  0.0000000 )


      isym =  7     120 deg rotation - cart. axis [1,1,-1]       

 cryst.   s( 7) = (     1          0         -1      )
                  (     0          0         -1      )
                  (     0          1         -1      )

 cart.    s( 7) = (  0.0000000  1.0000000  0.0000000 )
                  (  0.0000000  0.0000000 -1.0000000 )
                  ( -1.0000000  0.0000000  0.0000000 )


      isym =  8     120 deg rotation - cart. axis [1,-1,1]       

 cryst.   s( 8) = (    -1          0          1      )
                  (    -1          1          0      )
                  (    -1          0          0      )

 cart.    s( 8) = (  0.0000000 -1.0000000  0.0000000 )
                  (  0.0000000  0.0000000 -1.0000000 )
                  (  1.0000000  0.0000000  0.0000000 )


      isym =  9     120 deg rotation - cart. axis [1,1,1]        

 cryst.   s( 9) = (     0          0          1      )
                  (     1          0          0      )
                  (     0          1          0      )

 cart.    s( 9) = (  0.0000000  0.0000000  1.0000000 )
                  (  1.0000000  0.0000000  0.0000000 )
                  (  0.0000000  1.0000000  0.0000000 )


      isym = 10     120 deg rotation - cart. axis [-1,1,-1]      

 cryst.   s(10) = (     0          0         -1      )
                  (     0          1         -1      )
                  (     1          0         -1      )

 cart.    s(10) = (  0.0000000  0.0000000  1.0000000 )
                  ( -1.0000000  0.0000000  0.0000000 )
                  (  0.0000000 -1.0000000  0.0000000 )


      isym = 11     120 deg rotation - cart. axis [1,-1,-1]      

 cryst.   s(11) = (    -1          1          0      )
                  (    -1          0          0      )
                  (    -1          0          1      )

 cart.    s(11) = (  0.0000000  0.0000000 -1.0000000 )
                  ( -1.0000000  0.0000000  0.0000000 )
                  (  0.0000000  1.0000000  0.0000000 )


      isym = 12     120 deg rotation - cart. axis [-1,-1,1]      

 cryst.   s(12) = (     1         -1          0      )
                  (     0         -1          1      )
                  (     0         -1          0      )

 cart.    s(12) = (  0.0000000  0.0000000 -1.0000000 )
                  (  1.0000000  0.0000000  0.0000000 )
                  (  0.0000000 -1.0000000  0.0000000 )


      isym = 13     inv. 180 deg rotation - cart. axis [1,1,0]   

 cryst.   s(13) = (    -1          0          0      )
                  (    -1          1          0      )
                  (    -1          0          1      )

 cart.    s(13) = (  0.0000000 -1.0000000  0.0000000 )
                  ( -1.0000000  0.0000000  0.0000000 )
                  (  0.0000000  0.0000000  1.0000000 )


      isym = 14     inv. 180 deg rotation - cart. axis [1,-1,0]  

 cryst.   s(14) = (     1          0          0      )
                  (     0          0          1      )
                  (     0          1          0      )

 cart.    s(14) = (  0.0000000  1.0000000  0.0000000 )
                  (  1.0000000  0.0000000  0.0000000 )
                  (  0.0000000  0.0000000  1.0000000 )


      isym = 15     inv.  90 deg rotation - cart. axis [0,0,-1]  

 cryst.   s(15) = (     0         -1          1      )
                  (     1         -1          0      )
                  (     0         -1          0      )

 cart.    s(15) = (  0.0000000 -1.0000000  0.0000000 )
                  (  1.0000000  0.0000000  0.0000000 )
                  (  0.0000000  0.0000000 -1.0000000 )


      isym = 16     inv.  90 deg rotation - cart. axis [0,0,1]   

 cryst.   s(16) = (     0          1         -1      )
                  (     0          0         -1      )
                  (     1          0         -1      )

 cart.    s(16) = (  0.0000000  1.0000000  0.0000000 )
                  ( -1.0000000  0.0000000  0.0000000 )
                  (  0.0000000  0.0000000 -1.0000000 )


      isym = 17     inv. 180 deg rotation - cart. axis [1,0,1]   

 cryst.   s(17) = (     1         -1          0      )
                  (     0         -1          0      )
                  (     0         -1          1      )

 cart.    s(17) = (  0.0000000  0.0000000 -1.0000000 )
                  (  0.0000000  1.0000000  0.0000000 )
                  ( -1.0000000  0.0000000  0.0000000 )


      isym = 18     inv. 180 deg rotation - cart. axis [-1,0,1]  

 cryst.   s(18) = (     0          0          1      )
                  (     0          1          0      )
                  (     1          0          0      )

 cart.    s(18) = (  0.0000000  0.0000000  1.0000000 )
                  (  0.0000000  1.0000000  0.0000000 )
                  (  1.0000000  0.0000000  0.0000000 )


      isym = 19     inv.  90 deg rotation - cart. axis [0,1,0]   

 cryst.   s(19) = (    -1          1          0      )
                  (    -1          0          1      )
                  (    -1          0          0      )

 cart.    s(19) = (  0.0000000  0.0000000 -1.0000000 )
                  (  0.0000000 -1.0000000  0.0000000 )
                  (  1.0000000  0.0000000  0.0000000 )


      isym = 20     inv.  90 deg rotation - cart. axis [0,-1,0]  

 cryst.   s(20) = (     0          0         -1      )
                  (     1          0         -1      )
                  (     0          1         -1      )

 cart.    s(20) = (  0.0000000  0.0000000  1.0000000 )
                  (  0.0000000 -1.0000000  0.0000000 )
                  ( -1.0000000  0.0000000  0.0000000 )


      isym = 21     inv. 180 deg rotation - cart. axis [0,1,1]   

 cryst.   s(21) = (     1          0         -1      )
                  (     0          1         -1      )
                  (     0          0         -1      )

 cart.    s(21) = (  1.0000000  0.0000000  0.0000000 )
                  (  0.0000000  0.0000000 -1.0000000 )
                  (  0.0000000 -1.0000000  0.0000000 )


      isym = 22     inv. 180 deg rotation - cart. axis [0,1,-1]  

 cryst.   s(22) = (     0          1          0      )
                  (     1          0          0      )
                  (     0          0          1      )

 cart.    s(22) = (  1.0000000  0.0000000  0.0000000 )
                  (  0.0000000  0.0000000  1.0000000 )
                  (  0.0000000  1.0000000  0.0000000 )


      isym = 23     inv.  90 deg rotation - cart. axis [-1,0,0]  

 cryst.   s(23) = (    -1          0          1      )
                  (    -1          0          0      )
                  (    -1          1          0      )

 cart.    s(23) = ( -1.0000000  0.0000000  0.0000000 )
                  (  0.0000000  0.0000000 -1.0000000 )
                  (  0.0000000  1.0000000  0.0000000 )


      isym = 24     inv.  90 deg rotation - cart. axis [1,0,0]   

 cryst.   s(24) = (     0         -1          0      )
                  (     0         -1          1      )
                  (     1         -1          0      )

 cart.    s(24) = ( -1.0000000  0.0000000  0.0000000 )
                  (  0.0000000  0.0000000  1.0000000 )
                  (  0.0000000 -1.0000000  0.0000000 )


   Cartesian axes

     site n.     atom                  positions (alat units)
         1           As  tau(   1) = (   0.2500000   0.2500000   0.2500000  )
         2           Ga  tau(   2) = (   0.0000000   0.0000000   0.0000000  )

   Crystallographic axes

     site n.     atom                  positions (cryst. coord.)
         1           As  tau(   1) = (  0.2500000  0.2500000  0.2500000  )
         2           Ga  tau(   2) = (  0.0000000  0.0000000  0.0000000  )

     number of k points=    20  Marzari-Vanderbilt smearing, width (Ry)=  0.0050
                       cart. coord. in units 2pi/alat
        k(    1) = (   0.0000000   0.0000000   0.0000000), wk =   0.0029155
        k(    2) = (  -0.1428571   0.1428571   0.1428571), wk =   0.0233236
        k(    3) = (  -0.2857143   0.2857143   0.2857143), wk =   0.0233236
        k(    4) = (  -0.4285714   0.4285714   0.4285714), wk =   0.0233236
        k(    5) = (   0.0000000   0.0000000   0.2857143), wk =   0.0174927
        k(    6) = (  -0.1428571   0.1428571   0.4285714), wk =   0.0699708
        k(    7) = (  -0.2857143   0.2857143   0.5714286), wk =   0.0699708
        k(    8) = (   0.5714286  -0.5714286  -0.2857143), wk =   0.0699708
        k(    9) = (   0.4285714  -0.4285714  -0.1428571), wk =   0.0699708
        k(   10) = (   0.2857143  -0.2857143  -0.0000000), wk =   0.0349854
        k(   11) = (   0.0000000   0.0000000   0.5714286), wk =   0.0174927
        k(   12) = (  -0.1428571   0.1428571   0.7142857), wk =   0.0699708
        k(   13) = (   0.7142857  -0.7142857  -0.1428571), wk =   0.0699708
        k(   14) = (   0.5714286  -0.5714286   0.0000000), wk =   0.0349854
        k(   15) = (   0.0000000   0.0000000   0.8571429), wk =   0.0174927
        k(   16) = (   0.8571429  -0.8571429  -0.0000000), wk =   0.0349854
        k(   17) = (   0.0000000   0.2857143   0.5714286), wk =   0.0699708
        k(   18) = (   0.8571429  -0.5714286  -0.2857143), wk =   0.1399417
        k(   19) = (   1.0000000  -0.7142857  -0.1428571), wk =   0.0699708
        k(   20) = (   0.8571429  -0.5714286   0.0000000), wk =   0.0699708

                       cryst. coord.
        k(    1) = (   0.0000000   0.0000000   0.0000000), wk =   0.0029155
        k(    2) = (   0.0000000   0.0000000   0.1428571), wk =   0.0233236
        k(    3) = (   0.0000000   0.0000000   0.2857143), wk =   0.0233236
        k(    4) = (   0.0000000   0.0000000   0.4285714), wk =   0.0233236
        k(    5) = (   0.0000000   0.1428571   0.1428571), wk =   0.0174927
        k(    6) = (   0.0000000   0.1428571   0.2857143), wk =   0.0699708
        k(    7) = (   0.0000000   0.1428571   0.4285714), wk =   0.0699708
        k(    8) = (   0.0000000   0.1428571  -0.4285714), wk =   0.0699708
        k(    9) = (   0.0000000   0.1428571  -0.2857143), wk =   0.0699708
        k(   10) = (   0.0000000   0.1428571  -0.1428571), wk =   0.0349854
        k(   11) = (   0.0000000   0.2857143   0.2857143), wk =   0.0174927
        k(   12) = (   0.0000000   0.2857143   0.4285714), wk =   0.0699708
        k(   13) = (   0.0000000   0.2857143  -0.4285714), wk =   0.0699708
        k(   14) = (   0.0000000   0.2857143  -0.2857143), wk =   0.0349854
        k(   15) = (   0.0000000   0.4285714   0.4285714), wk =   0.0174927
        k(   16) = (   0.0000000   0.4285714  -0.4285714), wk =   0.0349854
        k(   17) = (   0.1428571   0.2857143   0.4285714), wk =   0.0699708
        k(   18) = (   0.1428571   0.2857143  -0.4285714), wk =   0.1399417
        k(   19) = (   0.1428571   0.4285714  -0.4285714), wk =   0.0699708
        k(   20) = (   0.1428571   0.4285714  -0.2857143), wk =   0.0699708

     Dense  grid:    14361 G-vectors     FFT dimensions: (  36,  36,  36)

     Dynamical RAM for                 wfc:       0.72 MB

     Dynamical RAM for     wfc (w. buffer):      15.16 MB

     Dynamical RAM for           str. fact:       0.22 MB

     Dynamical RAM for           local pot:       0.00 MB

     Dynamical RAM for          nlocal pot:       0.67 MB

     Dynamical RAM for                qrad:       5.95 MB

     Dynamical RAM for          rho,v,vnew:       3.45 MB

     Dynamical RAM for               rhoin:       1.15 MB

     Dynamical RAM for            rho*nmix:       7.01 MB

     Dynamical RAM for           G-vectors:       0.47 MB

     Dynamical RAM for          h,s,v(r/c):       0.50 MB

     Dynamical RAM for          <psi|beta>:       0.04 MB

     Dynamical RAM for                 psi:       2.89 MB

     Dynamical RAM for                hpsi:       2.89 MB

     Dynamical RAM for                spsi:       2.89 MB

     Dynamical RAM for      wfcinit/wfcrot:       1.10 MB

     Dynamical RAM for           addusdens:      66.96 MB

     Dynamical RAM for          addusforce:      67.03 MB

     Dynamical RAM for         addusstress:      68.82 MB

     Estimated static dynamical RAM per process >      28.82 MB

     Estimated max dynamical RAM per process >     104.65 MB

     Estimated total dynamical RAM >     209.31 MB

     Check: negative core charge=   -0.000002

     Initial potential from superposition of free atoms

     starting charge      17.9971, renormalised to      18.0000
     Starting wfcs are   26 randomized atomic wfcs
     Checking if some PAW data can be deallocated... 
       PAW data deallocated on    1 nodes for type:  1
       PAW data deallocated on    1 nodes for type:  2

     total cpu time spent up to now is        3.2 secs

     per-process dynamical memory:    47.0 Mb

     Self-consistent Calculation

     iteration #  1     ecut=    50.00 Ry     beta= 0.30
     Davidson diagonalization with overlap

---- Real-time Memory Report at c_bands before calling an iterative solver
           124 MiB given to the printing process from OS
            45 MiB allocation reported by mallinfo(arena+hblkhd)
           245 MiB available memory on the node where the printing process lives
------------------
     ethr =  1.00E-02,  avg # of iterations =  3.4

     Threshold (ethr) on eigenvalues was too large:
     Diagonalizing with lowered threshold

     Davidson diagonalization with overlap

---- Real-time Memory Report at c_bands before calling an iterative solver
           149 MiB given to the printing process from OS
            56 MiB allocation reported by mallinfo(arena+hblkhd)
           239 MiB available memory on the node where the printing process lives
------------------
     ethr =  2.42E-04,  avg # of iterations =  4.8

     total cpu time spent up to now is       12.8 secs

     total energy              =    -454.26640934 Ry
     estimated scf accuracy    <       0.05112855 Ry

     iteration #  2     ecut=    50.00 Ry     beta= 0.30
     Davidson diagonalization with overlap

---- Real-time Memory Report at c_bands before calling an iterative solver
           157 MiB given to the printing process from OS
            64 MiB allocation reported by mallinfo(arena+hblkhd)
           229 MiB available memory on the node where the printing process lives
------------------
     ethr =  2.84E-04,  avg # of iterations =  1.0

     total cpu time spent up to now is       15.9 secs

     total energy              =    -454.26512078 Ry
     estimated scf accuracy    <       0.01374242 Ry

     iteration #  3     ecut=    50.00 Ry     beta= 0.30
     Davidson diagonalization with overlap

---- Real-time Memory Report at c_bands before calling an iterative solver
           158 MiB given to the printing process from OS
            65 MiB allocation reported by mallinfo(arena+hblkhd)
           228 MiB available memory on the node where the printing process lives
------------------
     ethr =  7.63E-05,  avg # of iterations =  3.0

     total cpu time spent up to now is       20.0 secs

     total energy              =    -454.26950693 Ry
     estimated scf accuracy    <       0.00979801 Ry

     iteration #  4     ecut=    50.00 Ry     beta= 0.30
     Davidson diagonalization with overlap

---- Real-time Memory Report at c_bands before calling an iterative solver
           159 MiB given to the printing process from OS
            66 MiB allocation reported by mallinfo(arena+hblkhd)
           226 MiB available memory on the node where the printing process lives
------------------
     ethr =  5.44E-05,  avg # of iterations =  1.0

     total cpu time spent up to now is       23.2 secs

     total energy              =    -454.26781470 Ry
     estimated scf accuracy    <       0.00867822 Ry

     iteration #  5     ecut=    50.00 Ry     beta= 0.30
     Davidson diagonalization with overlap

---- Real-time Memory Report at c_bands before calling an iterative solver
           160 MiB given to the printing process from OS
            66 MiB allocation reported by mallinfo(arena+hblkhd)
           224 MiB available memory on the node where the printing process lives
------------------
     ethr =  4.82E-05,  avg # of iterations =  1.0

     total cpu time spent up to now is       11.5 secs

     total energy              =    -454.26836806 Ry
     estimated scf accuracy    <       0.00005096 Ry

     iteration #  6     ecut=    50.00 Ry     beta= 0.30
     Davidson diagonalization with overlap

---- Real-time Memory Report at c_bands before calling an iterative solver
           160 MiB given to the printing process from OS
            67 MiB allocation reported by mallinfo(arena+hblkhd)
           225 MiB available memory on the node where the printing process lives
------------------
     ethr =  2.83E-07,  avg # of iterations =  4.0

     total cpu time spent up to now is       17.4 secs

     total energy              =    -454.26869404 Ry
     estimated scf accuracy    <       0.00070532 Ry

     iteration #  7     ecut=    50.00 Ry     beta= 0.30
     Davidson diagonalization with overlap

---- Real-time Memory Report at c_bands before calling an iterative solver
           161 MiB given to the printing process from OS
            68 MiB allocation reported by mallinfo(arena+hblkhd)
           227 MiB available memory on the node where the printing process lives
------------------
     ethr =  2.83E-07,  avg # of iterations =  4.0

     total cpu time spent up to now is       22.0 secs

     total energy              =    -454.26875759 Ry
     estimated scf accuracy    <       0.00001015 Ry

     iteration #  8     ecut=    50.00 Ry     beta= 0.30
     Davidson diagonalization with overlap

---- Real-time Memory Report at c_bands before calling an iterative solver
           162 MiB given to the printing process from OS
            69 MiB allocation reported by mallinfo(arena+hblkhd)
           225 MiB available memory on the node where the printing process lives
------------------
     ethr =  5.64E-08,  avg # of iterations =  4.0

     total cpu time spent up to now is       26.5 secs

     total energy              =    -454.26876156 Ry
     estimated scf accuracy    <       0.00001161 Ry

     iteration #  9     ecut=    50.00 Ry     beta= 0.30
     Davidson diagonalization with overlap

---- Real-time Memory Report at c_bands before calling an iterative solver
           163 MiB given to the printing process from OS
            70 MiB allocation reported by mallinfo(arena+hblkhd)
           225 MiB available memory on the node where the printing process lives
------------------
     ethr =  5.64E-08,  avg # of iterations =  1.0

     total cpu time spent up to now is       13.5 secs

     total energy              =    -454.26875774 Ry
     estimated scf accuracy    <       0.00001438 Ry

     iteration # 10     ecut=    50.00 Ry     beta= 0.30
     Davidson diagonalization with overlap

---- Real-time Memory Report at c_bands before calling an iterative solver
           164 MiB given to the printing process from OS
            71 MiB allocation reported by mallinfo(arena+hblkhd)
           223 MiB available memory on the node where the printing process lives
------------------
     ethr =  5.64E-08,  avg # of iterations =  1.0

     total cpu time spent up to now is       16.7 secs

     total energy              =    -454.26875907 Ry
     estimated scf accuracy    <       0.00000151 Ry

     iteration # 11     ecut=    50.00 Ry     beta= 0.30
     Davidson diagonalization with overlap

---- Real-time Memory Report at c_bands before calling an iterative solver
           164 MiB given to the printing process from OS
            71 MiB allocation reported by mallinfo(arena+hblkhd)
           224 MiB available memory on the node where the printing process lives
------------------
     ethr =  8.40E-09,  avg # of iterations =  4.0

     total cpu time spent up to now is       21.0 secs

     total energy              =    -454.26876039 Ry
     estimated scf accuracy    <       0.00000181 Ry

     iteration # 12     ecut=    50.00 Ry     beta= 0.30
     Davidson diagonalization with overlap

---- Real-time Memory Report at c_bands before calling an iterative solver
           164 MiB given to the printing process from OS
            71 MiB allocation reported by mallinfo(arena+hblkhd)
           224 MiB available memory on the node where the printing process lives
------------------
     ethr =  8.40E-09,  avg # of iterations =  1.0

     total cpu time spent up to now is       24.1 secs

     total energy              =    -454.26875933 Ry
     estimated scf accuracy    <       0.00000584 Ry

     iteration # 13     ecut=    50.00 Ry     beta= 0.30
     Davidson diagonalization with overlap

---- Real-time Memory Report at c_bands before calling an iterative solver
           164 MiB given to the printing process from OS
            71 MiB allocation reported by mallinfo(arena+hblkhd)
           224 MiB available memory on the node where the printing process lives
------------------
     ethr =  8.40E-09,  avg # of iterations =  1.0

     total cpu time spent up to now is       27.2 secs

     total energy              =    -454.26875968 Ry
     estimated scf accuracy    <       0.00000155 Ry

     iteration # 14     ecut=    50.00 Ry     beta= 0.30
     Davidson diagonalization with overlap

---- Real-time Memory Report at c_bands before calling an iterative solver
           164 MiB given to the printing process from OS
            71 MiB allocation reported by mallinfo(arena+hblkhd)
           223 MiB available memory on the node where the printing process lives
------------------
     ethr =  8.40E-09,  avg # of iterations =  1.0

     total cpu time spent up to now is       30.2 secs

     total energy              =    -454.26875953 Ry
     estimated scf accuracy    <       0.00000239 Ry

     iteration # 15     ecut=    50.00 Ry     beta= 0.30
     Davidson diagonalization with overlap

---- Real-time Memory Report at c_bands before calling an iterative solver
           164 MiB given to the printing process from OS
            71 MiB allocation reported by mallinfo(arena+hblkhd)
           223 MiB available memory on the node where the printing process lives
------------------
     ethr =  8.40E-09,  avg # of iterations =  1.0

     total cpu time spent up to now is       33.3 secs

     total energy              =    -454.26876009 Ry
     estimated scf accuracy    <       0.00000182 Ry

     iteration # 16     ecut=    50.00 Ry     beta= 0.30
     Davidson diagonalization with overlap

---- Real-time Memory Report at c_bands before calling an iterative solver
           164 MiB given to the printing process from OS
            71 MiB allocation reported by mallinfo(arena+hblkhd)
           223 MiB available memory on the node where the printing process lives
------------------
     ethr =  8.40E-09,  avg # of iterations =  1.0

     total cpu time spent up to now is       21.2 secs

     total energy              =    -454.26875893 Ry
     estimated scf accuracy    <       0.00000402 Ry

     iteration # 17     ecut=    50.00 Ry     beta= 0.30
     Davidson diagonalization with overlap

---- Real-time Memory Report at c_bands before calling an iterative solver
           164 MiB given to the printing process from OS
            71 MiB allocation reported by mallinfo(arena+hblkhd)
           223 MiB available memory on the node where the printing process lives
------------------
     ethr =  8.40E-09,  avg # of iterations =  3.0

     total cpu time spent up to now is       25.0 secs

     total energy              =    -454.26875920 Ry
     estimated scf accuracy    <       0.00000002 Ry

     iteration # 18     ecut=    50.00 Ry     beta= 0.30
     Davidson diagonalization with overlap

---- Real-time Memory Report at c_bands before calling an iterative solver
           164 MiB given to the printing process from OS
            71 MiB allocation reported by mallinfo(arena+hblkhd)
           223 MiB available memory on the node where the printing process lives
------------------
     ethr =  1.28E-10,  avg # of iterations =  5.0

     total cpu time spent up to now is       30.3 secs

     total energy              =    -454.26875924 Ry
     estimated scf accuracy    <       0.00000005 Ry

     iteration # 19     ecut=    50.00 Ry     beta= 0.30
     Davidson diagonalization with overlap

---- Real-time Memory Report at c_bands before calling an iterative solver
           164 MiB given to the printing process from OS
            71 MiB allocation reported by mallinfo(arena+hblkhd)
           223 MiB available memory on the node where the printing process lives
------------------
     ethr =  1.28E-10,  avg # of iterations =  3.2

     total cpu time spent up to now is       34.4 secs

     End of self-consistent calculation

          k = 0.0000 0.0000 0.0000 (  1837 PWs)   bands (ev):

    -8.3021  -8.3021  -8.3021  -8.3021  -7.8769  -7.8769  -7.8242  -7.8242
    -7.8242  -7.8242  -6.0046  -6.0046   6.5025   6.5025   6.8380   6.8380
     6.8380   6.8380   7.2566   7.2566  10.3210  10.3210  10.5146  10.5146
    10.5146  10.5146

     occupation numbers 
     1.0000   1.0000   1.0000   1.0000   1.0000   1.0000   1.0000   1.0000
     1.0000   1.0000   1.0000   1.0000   1.0000   1.0000   1.0000   1.0000
     1.0000   1.0000   0.0000   0.0000   0.0000   0.0000   0.0000   0.0000
     0.0000   0.0000

          k =-0.1429 0.1429 0.1429 (  1835 PWs)   bands (ev):

    -8.3063  -8.3063  -8.3034  -8.2986  -7.8799  -7.8799  -7.8299  -7.8299
    -7.8234  -7.8180  -5.7671  -5.7671   4.4343   4.4343   6.3207   6.3207
     6.5342   6.5375   8.3610   8.3610  10.8193  10.8193  10.9559  10.9575
    11.1211  11.1211

     occupation numbers 
     1.0000   1.0000   1.0000   1.0000   1.0000   1.0000   1.0000   1.0000
     1.0000   1.0000   1.0000   1.0000   1.0000   1.0000   1.0000   1.0000
     1.0000   1.0000   0.0000   0.0000   0.0000   0.0000   0.0000   0.0000
     0.0000   0.0000

          k =-0.2857 0.2857 0.2857 (  1841 PWs)   bands (ev):

    -8.3163  -8.3163  -8.3018  -8.2959  -7.8848  -7.8848  -7.8398  -7.8398
    -7.8159  -7.8093  -5.1223  -5.1223   2.0190   2.0190   5.8238   5.8238
     6.0314   6.0349   8.0716   8.0716  11.3320  11.3320  11.4535  11.4562
    13.2842  13.2842

     occupation numbers 
     1.0000   1.0000   1.0000   1.0000   1.0000   1.0000   1.0000   1.0000
     1.0000   1.0000   1.0000   1.0000   1.0000   1.0000   1.0000   1.0000
     1.0000   1.0000   0.0000   0.0000   0.0000   0.0000   0.0000   0.0000
     0.0000   0.0000

          k =-0.4286 0.4286 0.4286 (  1838 PWs)   bands (ev):

    -8.3246  -8.3246  -8.2987  -8.2961  -7.8868  -7.8868  -7.8457  -7.8457
    -7.8073  -7.8043  -4.3826  -4.3826   0.3410   0.3410   5.5174   5.5174
     5.7235   5.7250   7.7648   7.7648  11.3330  11.3330  11.4287  11.4295
    14.5430  14.5430

     occupation numbers 
     1.0000   1.0000   1.0000   1.0000   1.0000   1.0000   1.0000   1.0000
     1.0000   1.0000   1.0000   1.0000   1.0000   1.0000   1.0000   1.0000
     1.0000   1.0000   0.0000   0.0000   0.0000   0.0000   0.0000   0.0000
     0.0000   0.0000

          k = 0.0000 0.0000 0.2857 (  1836 PWs)   bands (ev):

    -8.3108  -8.3108  -8.2974  -8.2974  -7.8818  -7.8818  -7.8264  -7.8264
    -7.8233  -7.8233  -5.6880  -5.6880   4.4202   4.4202   5.8393   5.8393
     5.9880   5.9880   9.2521   9.2521   9.7567   9.7567  11.6431  11.6431
    11.6913  11.6913

     occupation numbers 
     1.0000   1.0000   1.0000   1.0000   1.0000   1.0000   1.0000   1.0000
     1.0000   1.0000   1.0000   1.0000   1.0000   1.0000   1.0000   1.0000
     1.0000   1.0000   0.0000   0.0000   0.0000   0.0000   0.0000   0.0000
     0.0000   0.0000

          k =-0.1429 0.1429 0.4286 (  1830 PWs)   bands (ev):

    -8.3261  -8.3137  -8.2964  -8.2912  -7.8977  -7.8767  -7.8336  -7.8309
    -7.8182  -7.8150  -5.1762  -5.1736   2.5856   2.6033   5.2016   5.2548
     5.4044   5.4226   9.2494   9.2920  10.2945  10.2952  12.3617  12.3708
    12.4689  12.4750

     occupation numbers 
     1.0000   1.0000   1.0000   1.0000   1.0000   1.0000   1.0000   1.0000
     1.0000   1.0000   1.0000   1.0000   1.0000   1.0000   1.0000   1.0000
     1.0000   1.0000   0.0000   0.0000   0.0000   0.0000   0.0000   0.0000
     0.0000   0.0000

          k =-0.2857 0.2857 0.5714 (  1824 PWs)   bands (ev):

    -8.3410  -8.3161  -8.2943  -8.2877  -7.9118  -7.8683  -7.8431  -7.8359
    -7.8095  -7.8081  -4.4255  -4.4220   0.7878   0.8077   4.5381   4.5806
     5.1639   5.1704   8.9951   9.0232  10.9988  11.0210  12.4080  12.4097
    13.2456  13.2603

     occupation numbers 
     1.0000   1.0000   1.0000   1.0000   1.0000   1.0000   1.0000   1.0000
     1.0000   1.0000   1.0000   1.0000   1.0000   1.0000   1.0000   1.0000
     1.0000   1.0000   0.0000   0.0000   0.0000   0.0000   0.0000   0.0000
     0.0000   0.0000

          k = 0.5714-0.5714-0.2857 (  1816 PWs)   bands (ev):

    -8.3456  -8.3171  -8.2923  -8.2874  -7.9163  -7.8622  -7.8499  -7.8372
    -7.8068  -7.8056  -4.1000  -4.0969   0.1866   0.2093   4.1607   4.2016
     5.3242   5.3262   8.9190   8.9495  11.1760  11.1840  12.0533  12.0536
    14.8203  14.8573

     occupation numbers 
     1.0000   1.0000   1.0000   1.0000   1.0000   1.0000   1.0000   1.0000
     1.0000   1.0000   1.0000   1.0000   1.0000   1.0000   1.0000   1.0000
     1.0000   1.0000   0.0000   0.0000   0.0000   0.0000   0.0000   0.0000
     0.0000   0.0000

          k = 0.4286-0.4286-0.1429 (  1826 PWs)   bands (ev):

    -8.3371  -8.3152  -8.2923  -8.2903  -7.9104  -7.8662  -7.8458  -7.8346
    -7.8121  -7.8088  -4.6824  -4.6780   1.3212   1.3471   4.2427   4.2901
     5.8037   5.8038   9.1009   9.1426  11.4887  11.4999  11.7109  11.7119
    13.2453  13.2553

     occupation numbers 
     1.0000   1.0000   1.0000   1.0000   1.0000   1.0000   1.0000   1.0000
     1.0000   1.0000   1.0000   1.0000   1.0000   1.0000   1.0000   1.0000
     1.0000   1.0000   0.0000   0.0000   0.0000   0.0000   0.0000   0.0000
     0.0000   0.0000

          k = 0.2857-0.2857-0.0000 (  1833 PWs)   bands (ev):

    -8.3201  -8.3111  -8.2967  -8.2951  -7.8949  -7.8737  -7.8369  -7.8307
    -7.8197  -7.8150  -5.3930  -5.3899   3.1334   3.1621   5.0096   5.0655
     6.3522   6.3530   9.1304   9.1918  10.9350  10.9888  11.0867  11.0899
    12.3010  12.3211

     occupation numbers 
     1.0000   1.0000   1.0000   1.0000   1.0000   1.0000   1.0000   1.0000
     1.0000   1.0000   1.0000   1.0000   1.0000   1.0000   1.0000   1.0000
     1.0000   1.0000   0.0000   0.0000   0.0000   0.0000   0.0000   0.0000
     0.0000   0.0000

          k = 0.0000 0.0000 0.5714 (  1824 PWs)   bands (ev):

    -8.3286  -8.3286  -8.2883  -8.2883  -7.8922  -7.8922  -7.8238  -7.8238
    -7.8184  -7.8184  -4.8174  -4.8174   2.0695   2.0695   4.7266   4.7266
     4.8285   4.8285   8.4965   8.4965   9.7736   9.7736  13.9396  13.9396
    13.9776  13.9776

     occupation numbers 
     1.0000   1.0000   1.0000   1.0000   1.0000   1.0000   1.0000   1.0000
     1.0000   1.0000   1.0000   1.0000   1.0000   1.0000   1.0000   1.0000
     1.0000   1.0000   0.0000   0.0000   0.0000   0.0000   0.0000   0.0000
     0.0000   0.0000

          k =-0.1429 0.1429 0.7143 (  1823 PWs)   bands (ev):

    -8.3479  -8.3247  -8.2872  -8.2810  -7.9155  -7.8768  -7.8276  -7.8245
    -7.8157  -7.8088  -4.1751  -4.1726   0.8719   0.8973   3.8743   3.9176
     4.5023   4.5088   8.7037   8.7074   9.9732  10.0073  13.6558  13.6646
    14.4650  14.4673

     occupation numbers 
     1.0000   1.0000   1.0000   1.0000   1.0000   1.0000   1.0000   1.0000
     1.0000   1.0000   1.0000   1.0000   1.0000   1.0000   1.0000   1.0000
     1.0000   1.0000   0.0000   0.0000   0.0000   0.0000   0.0000   0.0000
     0.0000   0.0000

          k = 0.7143-0.7143-0.1429 (  1821 PWs)   bands (ev):

    -8.3581  -8.3205  -8.2867  -8.2754  -7.9314  -7.8634  -7.8334  -7.8295
    -7.8116  -7.8055  -3.7094  -3.7078   0.1852   0.2316   2.9912   3.0484
     4.6519   4.6536   8.8696   8.8773  11.8918  11.9949  13.4837  13.5529
    13.9679  13.9703

     occupation numbers 
     1.0000   1.0000   1.0000   1.0000   1.0000   1.0000   1.0000   1.0000
     1.0000   1.0000   1.0000   1.0000   1.0000   1.0000   1.0000   1.0000
     1.0000   1.0000   0.0000   0.0000   0.0000   0.0000   0.0000   0.0000
     0.0000   0.0000

          k = 0.5714-0.5714 0.0000 (  1814 PWs)   bands (ev):

    -8.3540  -8.3178  -8.2882  -8.2774  -7.9300  -7.8558  -7.8462  -7.8306
    -7.8096  -7.8075  -4.0300  -4.0260   0.6082   0.6607   2.9471   3.0133
     5.1742   5.1743   9.2766   9.2977  12.5322  12.6851  12.9985  13.0070
    13.2144  13.3283

     occupation numbers 
     1.0000   1.0000   1.0000   1.0000   1.0000   1.0000   1.0000   1.0000
     1.0000   1.0000   1.0000   1.0000   1.0000   1.0000   1.0000   1.0000
     1.0000   1.0000   0.0000   0.0000   0.0000   0.0000   0.0000   0.0000
     0.0000   0.0000

          k = 0.0000 0.0000 0.8571 (  1796 PWs)   bands (ev):

    -8.3422  -8.3422  -8.2816  -8.2816  -7.8978  -7.8978  -7.8233  -7.8233
    -7.8080  -7.8080  -3.7365  -3.7365   0.2318   0.2318   4.0831   4.0831
     4.1689   4.1689   8.1288   8.1288   8.6383   8.6383  16.2954  16.2954
    16.3674  16.3674

     occupation numbers 
     1.0000   1.0000   1.0000   1.0000   1.0000   1.0000   1.0000   1.0000
     1.0000   1.0000   1.0000   1.0000   1.0000   1.0000   1.0000   1.0000
     1.0000   1.0000   0.0000   0.0000   0.0000   0.0000   0.0000   0.0000
     0.0000   0.0000

          k = 0.8571-0.8571-0.0000 (  1804 PWs)   bands (ev):

    -8.3565  -8.3298  -8.2832  -8.2766  -7.9214  -7.8770  -7.8262  -7.8183
    -7.8162  -7.8035  -3.4881  -3.4878  -0.0537  -0.0239   3.3777   3.4186
     4.1827   4.1871   8.4040   8.4072   9.5309   9.5639  15.7140  15.7961
    15.9976  16.0062

     occupation numbers 
     1.0000   1.0000   1.0000   1.0000   1.0000   1.0000   1.0000   1.0000
     1.0000   1.0000   1.0000   1.0000   1.0000   1.0000   1.0000   1.0000
     1.0000   1.0000   0.0000   0.0000   0.0000   0.0000   0.0000   0.0000
     0.0000   0.0000

          k = 0.0000 0.2857 0.5714 (  1838 PWs)   bands (ev):

    -8.3425  -8.3172  -8.2907  -8.2846  -7.9154  -7.8690  -7.8362  -7.8294
    -7.8132  -7.8122  -4.5910  -4.5867   1.4919   1.5266   3.9009   3.9647
     5.0892   5.1302   9.8643   9.9654  10.3769  10.4217  11.9267  11.9636
    13.6825  13.7214

     occupation numbers 
     1.0000   1.0000   1.0000   1.0000   1.0000   1.0000   1.0000   1.0000
     1.0000   1.0000   1.0000   1.0000   1.0000   1.0000   1.0000   1.0000
     1.0000   1.0000   0.0000   0.0000   0.0000   0.0000   0.0000   0.0000
     0.0000   0.0000

          k = 0.8571-0.5714-0.2857 (  1806 PWs)   bands (ev):

    -8.3552  -8.3178  -8.2875  -8.2786  -7.9300  -7.8576  -7.8423  -7.8304
    -7.8092  -7.8077  -3.9333  -3.9301   0.4070   0.4493   3.2921   3.3536
     4.6253   4.6568   9.9878  10.0581  10.9650  10.9997  12.5534  12.6298
    14.2435  14.3004

     occupation numbers 
     1.0000   1.0000   1.0000   1.0000   1.0000   1.0000   1.0000   1.0000
     1.0000   1.0000   1.0000   1.0000   1.0000   1.0000   1.0000   1.0000
     1.0000   1.0000   0.0000   0.0000   0.0000   0.0000   0.0000   0.0000
     0.0000   0.0000

          k = 1.0000-0.7143-0.1429 (  1817 PWs)   bands (ev):

    -8.3586  -8.3235  -8.2835  -8.2769  -7.9293  -7.8675  -7.8279  -7.8239
    -7.8152  -7.8053  -3.6528  -3.6518   0.2133   0.2523   3.4125   3.4887
     3.8418   3.8913   9.5728   9.6010   9.9037   9.9550  13.4032  13.4196
    15.5755  15.6168

     occupation numbers 
     1.0000   1.0000   1.0000   1.0000   1.0000   1.0000   1.0000   1.0000
     1.0000   1.0000   1.0000   1.0000   1.0000   1.0000   1.0000   1.0000
     1.0000   1.0000   0.0000   0.0000   0.0000   0.0000   0.0000   0.0000
     0.0000   0.0000

          k = 0.8571-0.5714 0.0000 (  1823 PWs)   bands (ev):

    -8.3630  -8.3194  -8.2832  -8.2740  -7.9392  -7.8552  -7.8358  -7.8272
    -7.8110  -7.8068  -3.5219  -3.5218   0.1062   0.1619   2.8721   2.9401
     3.9356   3.9614  10.0143  10.0549  11.8873  12.0060  12.7397  12.7833
    13.4232  13.4605

     occupation numbers 
     1.0000   1.0000   1.0000   1.0000   1.0000   1.0000   1.0000   1.0000
     1.0000   1.0000   1.0000   1.0000   1.0000   1.0000   1.0000   1.0000
     1.0000   1.0000   0.0000   0.0000   0.0000   0.0000   0.0000   0.0000
     0.0000   0.0000

     the Fermi energy is     7.0967 ev

!    total energy              =    -454.26875925 Ry

     total all-electron energy =     -8410.504158 Ry
     estimated scf accuracy    <          2.6E-10 Ry
     smearing contrib. (-TS)   =       0.00000000 Ry
     internal energy E=F+TS    =    -454.26875925 Ry

     The total energy is F=E-TS. E is the sum of the following terms:
     one-electron contribution =    -119.06225773 Ry
     hartree contribution      =      75.17336885 Ry
     xc contribution           =     -49.72585236 Ry
     ewald contribution        =     -93.01011537 Ry
     one-center paw contrib.   =    -267.64390264 Ry
      -> PAW hartree energy AE =       7.73432185 Ry
      -> PAW hartree energy PS =      -7.71512635 Ry
      -> PAW xc energy AE      =    -167.30299198 Ry
      -> PAW xc energy PS      =      11.02865055 Ry
      -> total E_H with PAW    =      75.19256435 Ry
      -> total E_XC with PAW   =    -206.00019379 Ry

     convergence has been achieved in  19 iterations

     Forces acting on atoms (cartesian axes, Ry/au):

     atom    1 type  1   force =    -0.00000000    0.00000000   -0.00000000
     atom    2 type  2   force =     0.00000000   -0.00000000    0.00000000
     The non-local contrib.  to forces
     atom    1 type  1   force =    -0.00000000    0.00000000   -0.00000000
     atom    2 type  2   force =     0.00000000    0.00000000    0.00000000
     The ionic contribution  to forces
     atom    1 type  1   force =     0.00000000    0.00000000   -0.00000000
     atom    2 type  2   force =     0.00000000    0.00000000   -0.00000000
     The local contribution  to forces
     atom    1 type  1   force =    -0.00000000   -0.00000000   -0.00000000
     atom    2 type  2   force =     0.00000000    0.00000000    0.00000000
     The core correction contribution to forces
     atom    1 type  1   force =    -0.00000000    0.00000000   -0.00000000
     atom    2 type  2   force =     0.00000000    0.00000000    0.00000000
     The Hubbard contrib.    to forces
     atom    1 type  1   force =     0.00000000    0.00000000    0.00000000
     atom    2 type  2   force =     0.00000000    0.00000000    0.00000000
     The SCF correction term to forces
     atom    1 type  1   force =     0.00000000   -0.00000000   -0.00000000
     atom    2 type  2   force =    -0.00000000   -0.00000000   -0.00000000

     Total force =     0.000000     Total SCF correction =     0.000000


     Computing stress (Cartesian axis) and pressure

          total   stress  (Ry/bohr**3)                   (kbar)     P=       34.52
   0.00023465   0.00000000   0.00000000           34.52        0.00        0.00
   0.00000000   0.00023465   0.00000000            0.00       34.52        0.00
   0.00000000   0.00000000   0.00023465            0.00        0.00       34.52

     kinetic stress (kbar)   6897.69      0.00      0.00
                                0.00   6897.69      0.00
                                0.00      0.00   6897.69

     local   stress (kbar)   -737.59     -0.00     -0.00
                               -0.00   -737.59     -0.00
                               -0.00     -0.00   -737.59

     nonloc. stress (kbar)   1299.32      0.00      0.00
                                0.00   1299.32      0.00
                                0.00      0.00   1299.32

     hartree stress (kbar)  12090.26      0.00      0.00
                                0.00  12090.26     -0.00
                                0.00     -0.00  12090.26

     exc-cor stress (kbar)   6459.98     -0.00     -0.00
                               -0.00   6459.98      0.00
                               -0.00      0.00   6459.98

     corecor stress (kbar) -11016.17      0.00     -0.00
                                0.00 -11016.17      0.00
                               -0.00      0.00 -11016.17

     ewald   stress (kbar) -14958.97      0.00      0.00
                                0.00 -14958.97      0.00
                                0.00      0.00 -14958.97

     hubbard stress (kbar)      0.00      0.00      0.00
                                0.00      0.00      0.00
                                0.00      0.00      0.00

     DFT-D   stress (kbar)      0.00      0.00      0.00
                                0.00      0.00      0.00
                                0.00      0.00      0.00

     XDM     stress (kbar)      0.00      0.00      0.00
                                0.00      0.00      0.00
                                0.00      0.00      0.00

     dft-nl  stress (kbar)      0.00      0.00      0.00
                                0.00      0.00      0.00
                                0.00      0.00      0.00

     TS-vdW  stress (kbar)      0.00      0.00      0.00
                                0.00      0.00      0.00
                                0.00      0.00      0.00


                                0.00      0.00      0.00
                                0.00      0.00      0.00


                                0.00      0.00      0.00


     Writing all to output data dir ./outputs/gaas.save/

     init_run     :      2.18s CPU      2.69s WALL (       1 calls)
     electrons    :     72.05s CPU     31.24s WALL (       1 calls)
     forces       :      0.43s CPU      0.46s WALL (       1 calls)
     stress       :      1.46s CPU      1.69s WALL (       1 calls)

     Called by init_run:
     wfcinit      :      0.88s CPU      1.04s WALL (       1 calls)
     wfcinit:atom :      0.01s CPU      0.01s WALL (      20 calls)
     wfcinit:wfcr :      0.81s CPU      0.96s WALL (      20 calls)
     potinit      :      0.21s CPU      0.25s WALL (       1 calls)
     hinit0       :      0.94s CPU      1.03s WALL (       1 calls)

     Called by electrons:
     c_bands      :     54.01s CPU     42.50s WALL (      20 calls)
     sum_band     :     11.86s CPU     12.89s WALL (      20 calls)
     v_of_rho     :      0.22s CPU      0.23s WALL (      20 calls)
     v_h          :      0.01s CPU      0.01s WALL (      20 calls)
     v_xc         :      0.22s CPU      0.25s WALL (      22 calls)
     newd         :      2.47s CPU      3.32s WALL (      20 calls)
     PAW_pot      :      3.57s CPU    -12.38s WALL (      20 calls)
     mix_rho      :      0.17s CPU      0.19s WALL (      20 calls)

     Called by c_bands:
     init_us_2    :      0.38s CPU      0.40s WALL (     860 calls)
     init_us_2:cp :      0.38s CPU      0.40s WALL (     860 calls)
     cegterg      :     52.08s CPU     40.41s WALL (     400 calls)

     Called by sum_band:
     sum_band:wei :      0.01s CPU      0.02s WALL (      20 calls)
     sum_band:loo :      9.23s CPU      9.76s WALL (      20 calls)
     sum_band:buf :      0.06s CPU      0.06s WALL (     400 calls)
     sum_band:ini :      0.17s CPU      0.18s WALL (     400 calls)
     sum_band:cal :      0.76s CPU      0.82s WALL (     400 calls)
     sum_band:bec :      0.57s CPU      0.60s WALL (     400 calls)
     addusdens    :      2.48s CPU      2.96s WALL (      20 calls)
     addusd:skk   :      0.00s CPU      0.00s WALL (      40 calls)
     addusd:dgemm :      0.66s CPU      1.03s WALL (      40 calls)
     addusd:qvan2 :      1.71s CPU      1.81s WALL (      40 calls)

     Called by *egterg:
     cdiaghg      :      1.49s CPU      1.58s WALL (    1350 calls)
     cegterg:over :      3.09s CPU      3.31s WALL (     970 calls)
     cegterg:upda :      2.18s CPU      2.31s WALL (     970 calls)
     cegterg:last :      1.22s CPU      1.29s WALL (     421 calls)
     h_psi        :     40.98s CPU     28.73s WALL (    1390 calls)
     s_psi        :      1.97s CPU      2.06s WALL (    1390 calls)
     g_psi        :      0.44s CPU      0.47s WALL (     970 calls)

     Called by h_psi:
     h_psi:calbec :      1.96s CPU      2.09s WALL (    1390 calls)
     vloc_psi     :     36.92s CPU     24.42s WALL (    1390 calls)
     add_vuspsi   :      1.96s CPU      2.07s WALL (    1390 calls)

     General routines
     calbec       :      2.90s CPU      3.09s WALL (    1890 calls)
     fft          :      0.48s CPU      0.53s WALL (     306 calls)
     ffts         :      0.03s CPU      0.03s WALL (      80 calls)
     fftw         :     37.29s CPU     24.92s WALL (  130116 calls)

     Parallel routines

     PAW routines
     PAW_pot      :      3.57s CPU    -12.38s WALL (      20 calls)
     PAW_symme    :      0.02s CPU      0.02s WALL (      40 calls)

     PWSCF        :   1m16.42s CPU     36.67s WALL


   This run was terminated on:   6:23: 7   3Jan2025            

=------------------------------------------------------------------------------=
   JOB DONE.
=------------------------------------------------------------------------------=
