
     Program PWSCF v.7.0 starts on 18Dec2024 at  6:54: 0 

     This program is part of the open-source Quantum ESPRESSO suite
     for quantum simulation of materials; please cite
         "P. Giannozzi et al., J. Phys.:Condens. Matter 21 395502 (2009);
         "P. Giannozzi et al., J. Phys.:Condens. Matter 29 465901 (2017);
         "P. Giannozzi et al., J. Chem. Phys. 152 154105 (2020);
          URL http://www.quantum-espresso.org", 
     in publications or presentations arising from this work. More details at
     http://www.quantum-espresso.org/quote

     Parallel version (MPI & OpenMP), running on       2 processor cores
     Number of MPI processes:                 2
     Threads/MPI process:                     1

     MPI processes distributed on     1 nodes
     R & G space division:  proc/nbgrp/npool/nimage =       2
     272 MiB available memory on the printing compute node when the environment starts

     Reading input from pw.scf.wo_soc.in

     Current dimensions of program PWSCF are:
     Max number of different atomic species (ntypx) = 10
     Max number of k-points (npk) =  40000
     Max angular momentum in pseudopotentials (lmaxx) =  4
     file Ga.pbe-dn-kjpaw_psl.1.0.0.UPF: wavefunction(s)  4S renormalized

     IMPORTANT: XC functional enforced from input :
     Exchange-correlation= PBE
                           (   1   4   3   4   0   0   0)
     Any further DFT definition will be discarded
     Please, verify this is what you really want

     Message from routine setup:
     using ibrav=0 with symmetry is DISCOURAGED, use correct ibrav instead

     Subspace diagonalization in iterative solution of the eigenvalue problem:
     a serial algorithm will be used


     Parallelization info
     --------------------
     sticks:   dense  smooth     PW     G-vecs:    dense   smooth      PW
     Min         408     408    126                 7676     7676    1318
     Max         409     409    127                 7677     7677    1319
     Sum         817     817    253                15353    15353    2637

     Using Slab Decomposition



     bravais-lattice index     =            0
     lattice parameter (alat)  =       7.6836  a.u.
     unit-cell volume          =     320.7602 (a.u.)^3
     number of atoms/cell      =            2
     number of atomic types    =            2
     number of electrons       =        18.00
     number of Kohn-Sham states=           13
     kinetic-energy cutoff     =      50.0000  Ry
     charge density cutoff     =     200.0000  Ry
     scf convergence threshold =      1.0E-08
     mixing beta               =       0.3000
     number of iterations used =            8  plain     mixing
     Exchange-correlation= PBE
                           (   1   4   3   4   0   0   0)

     celldm(1)=   7.683608  celldm(2)=   0.000000  celldm(3)=   0.000000
     celldm(4)=   0.000000  celldm(5)=   0.000000  celldm(6)=   0.000000

     crystal axes: (cart. coord. in units of alat)
               a(1) = (   1.000000   0.000000   0.000000 )  
               a(2) = (   0.500000   0.866025   0.000000 )  
               a(3) = (   0.500000   0.288675   0.816497 )  

     reciprocal axes: (cart. coord. in units 2 pi/alat)
               b(1) = (  1.000000 -0.577350 -0.408248 )  
               b(2) = (  0.000000  1.154701 -0.408248 )  
               b(3) = (  0.000000  0.000000  1.224745 )  


     PseudoPot. # 1 for As read from file:
     ../Pseudopotentials/As.pbe-n-kjpaw_psl.1.0.0.UPF
     MD5 check sum: 21b474db91924651be503153fb2dbf55
     Pseudo is Projector augmented-wave + core cor, Zval =  5.0
     Generated using &quot;atomic&quot; code by A. Dal Corso  v.6.3
     Shape of augmentation charge: PSQ
     Using radial grid of 1209 points,  4 beta functions with: 
                l(1) =   0
                l(2) =   0
                l(3) =   1
                l(4) =   1
     Q(r) pseudized with 0 coefficients 


     PseudoPot. # 2 for Ga read from file:
     ../Pseudopotentials/Ga.pbe-dn-kjpaw_psl.1.0.0.UPF
     MD5 check sum: 50ce49cbf7e0a40ad8623bf41840a268
     Pseudo is Projector augmented-wave + core cor, Zval = 13.0
     Generated using &quot;atomic&quot; code by A. Dal Corso  v.6.3
     Shape of augmentation charge: PSQ
     Using radial grid of 1205 points,  6 beta functions with: 
                l(1) =   0
                l(2) =   0
                l(3) =   1
                l(4) =   1
                l(5) =   2
                l(6) =   2
     Q(r) pseudized with 0 coefficients 


     atomic species   valence    mass     pseudopotential
        As             5.00    74.92100     As( 1.00)
        Ga            13.00    69.72300     Ga( 1.00)

     Starting magnetic structure 
     atomic species   magnetization
        As           1.000
        Ga           1.000

      6 Sym. Ops. (no inversion) found


                                    s                        frac. trans.

      isym =  1     identity                                     

 cryst.   s( 1) = (     1          0          0      )
                  (     0          1          0      )
                  (     0          0          1      )

 cart.    s( 1) = (  1.0000000  0.0000000  0.0000000 )
                  (  0.0000000  1.0000000  0.0000000 )
                  (  0.0000000  0.0000000  1.0000000 )


      isym =  2     120 deg rotation - cryst. axis [0,0,1]       

 cryst.   s( 2) = (    -1          1          0      )
                  (    -1          0          0      )
                  (    -1          0          1      )

 cart.    s( 2) = ( -0.5000000 -0.8660254 -0.0000000 )
                  (  0.8660254 -0.5000000 -0.0000000 )
                  (  0.0000000  0.0000000  1.0000000 )


      isym =  3     120 deg rotation - cryst. axis [0,0,-1]      

 cryst.   s( 3) = (     0         -1          0      )
                  (     1         -1          0      )
                  (     0         -1          1      )

 cart.    s( 3) = ( -0.5000000  0.8660254  0.0000000 )
                  ( -0.8660254 -0.5000000 -0.0000000 )
                  (  0.0000000  0.0000000  1.0000000 )


      isym =  4     inv. 180 deg rotation - cart. axis [1,0,0]   

 cryst.   s( 4) = (    -1          0          0      )
                  (    -1          1          0      )
                  (    -1          0          1      )

 cart.    s( 4) = ( -1.0000000  0.0000000 -0.0000000 )
                  (  0.0000000  1.0000000  0.0000000 )
                  (  0.0000000  0.0000000  1.0000000 )


      isym =  5     inv. 180 deg rotation - cryst. axis [0,1,0]  

 cryst.   s( 5) = (     0          1          0      )
                  (     1          0          0      )
                  (     0          0          1      )

 cart.    s( 5) = (  0.5000000  0.8660254  0.0000000 )
                  (  0.8660254 -0.5000000 -0.0000000 )
                  (  0.0000000  0.0000000  1.0000000 )


      isym =  6     inv. 180 deg rotation - cryst. axis [1,1,0]  

 cryst.   s( 6) = (     1         -1          0      )
                  (     0         -1          0      )
                  (     0         -1          1      )

 cart.    s( 6) = (  0.5000000 -0.8660254 -0.0000000 )
                  ( -0.8660254 -0.5000000 -0.0000000 )
                  (  0.0000000  0.0000000  1.0000000 )


   Cartesian axes

     site n.     atom                  positions (alat units)
         1           As  tau(   1) = (   0.5000000   0.2886751   0.2041241  )
         2           Ga  tau(   2) = (   0.0000000   0.0000000   0.0000000  )

   Crystallographic axes

     site n.     atom                  positions (cryst. coord.)
         1           As  tau(   1) = (  0.2500000  0.2500000  0.2500000  )
         2           Ga  tau(   2) = (  0.0000000  0.0000000  0.0000000  )

     number of k points=    44  Marzari-Vanderbilt smearing, width (Ry)=  0.0050
                       cart. coord. in units 2pi/alat
        k(    1) = (   0.0000000   0.0000000   0.0000000), wk =   0.0029155
        k(    2) = (   0.0000000   0.0000000   0.1749636), wk =   0.0058309
        k(    3) = (   0.0000000   0.0000000   0.3499271), wk =   0.0058309
        k(    4) = (   0.0000000   0.0000000   0.5248907), wk =   0.0058309
        k(    5) = (   0.0000000   0.1649572  -0.0583212), wk =   0.0174927
        k(    6) = (   0.0000000   0.1649572   0.1166424), wk =   0.0174927
        k(    7) = (   0.0000000   0.1649572   0.2916059), wk =   0.0174927
        k(    8) = (   0.0000000   0.1649572   0.4665695), wk =   0.0174927
        k(    9) = (   0.0000000   0.1649572  -0.5832118), wk =   0.0174927
        k(   10) = (   0.0000000   0.1649572  -0.4082483), wk =   0.0174927
        k(   11) = (   0.0000000   0.1649572  -0.2332847), wk =   0.0174927
        k(   12) = (   0.0000000   0.3299144  -0.1166424), wk =   0.0174927
        k(   13) = (   0.0000000   0.3299144   0.0583212), wk =   0.0174927
        k(   14) = (   0.0000000   0.3299144   0.2332847), wk =   0.0174927
        k(   15) = (   0.0000000   0.3299144   0.4082483), wk =   0.0174927
        k(   16) = (   0.0000000   0.3299144  -0.6415330), wk =   0.0174927
        k(   17) = (   0.0000000   0.3299144  -0.4665695), wk =   0.0174927
        k(   18) = (   0.0000000   0.3299144  -0.2916059), wk =   0.0174927
        k(   19) = (   0.0000000   0.4948717  -0.1749636), wk =   0.0174927
        k(   20) = (   0.0000000   0.4948717   0.0000000), wk =   0.0174927
        k(   21) = (   0.0000000   0.4948717   0.1749636), wk =   0.0174927
        k(   22) = (   0.0000000   0.4948717   0.3499271), wk =   0.0174927
        k(   23) = (   0.0000000   0.4948717  -0.6998542), wk =   0.0174927
        k(   24) = (   0.0000000   0.4948717  -0.5248907), wk =   0.0174927
        k(   25) = (   0.0000000   0.4948717  -0.3499271), wk =   0.0174927
        k(   26) = (   0.1428571   0.2474358  -0.1749636), wk =   0.0349854
        k(   27) = (   0.1428571   0.2474358   0.0000000), wk =   0.0174927
        k(   28) = (   0.1428571   0.2474358   0.3499271), wk =   0.0349854
        k(   29) = (   0.1428571   0.2474358  -0.6998542), wk =   0.0349854
        k(   30) = (   0.1428571   0.4123930  -0.2332847), wk =   0.0349854
        k(   31) = (   0.1428571   0.4123930  -0.0583212), wk =   0.0349854
        k(   32) = (   0.1428571   0.4123930   0.1166424), wk =   0.0349854
        k(   33) = (   0.1428571   0.4123930   0.2916059), wk =   0.0349854
        k(   34) = (   0.1428571   0.4123930  -0.7581754), wk =   0.0349854
        k(   35) = (   0.1428571   0.4123930  -0.5832118), wk =   0.0349854
        k(   36) = (   0.1428571   0.4123930  -0.4082483), wk =   0.0349854
        k(   37) = (   0.1428571  -0.5773503   0.1166424), wk =   0.0349854
        k(   38) = (   0.1428571  -0.5773503   0.4665695), wk =   0.0349854
        k(   39) = (   0.1428571  -0.5773503   0.6415330), wk =   0.0349854
        k(   40) = (   0.1428571  -0.5773503  -0.4082483), wk =   0.0174927
        k(   41) = (   0.2857143  -0.6598289   0.0583212), wk =   0.0349854
        k(   42) = (   0.2857143  -0.6598289   0.2332847), wk =   0.0349854
        k(   43) = (   0.2857143  -0.6598289   0.4082483), wk =   0.0174927
        k(   44) = (   0.2857143  -0.6598289  -0.2916059), wk =   0.0349854

                       cryst. coord.
        k(    1) = (   0.0000000   0.0000000   0.0000000), wk =   0.0029155
        k(    2) = (   0.0000000   0.0000000   0.1428571), wk =   0.0058309
        k(    3) = (   0.0000000   0.0000000   0.2857143), wk =   0.0058309
        k(    4) = (   0.0000000   0.0000000   0.4285714), wk =   0.0058309
        k(    5) = (   0.0000000   0.1428571  -0.0000000), wk =   0.0174927
        k(    6) = (   0.0000000   0.1428571   0.1428571), wk =   0.0174927
        k(    7) = (   0.0000000   0.1428571   0.2857143), wk =   0.0174927
        k(    8) = (   0.0000000   0.1428571   0.4285714), wk =   0.0174927
        k(    9) = (   0.0000000   0.1428571  -0.4285714), wk =   0.0174927
        k(   10) = (   0.0000000   0.1428571  -0.2857143), wk =   0.0174927
        k(   11) = (   0.0000000   0.1428571  -0.1428571), wk =   0.0174927
        k(   12) = (   0.0000000   0.2857143  -0.0000000), wk =   0.0174927
        k(   13) = (   0.0000000   0.2857143   0.1428571), wk =   0.0174927
        k(   14) = (   0.0000000   0.2857143   0.2857143), wk =   0.0174927
        k(   15) = (   0.0000000   0.2857143   0.4285714), wk =   0.0174927
        k(   16) = (   0.0000000   0.2857143  -0.4285714), wk =   0.0174927
        k(   17) = (   0.0000000   0.2857143  -0.2857143), wk =   0.0174927
        k(   18) = (   0.0000000   0.2857143  -0.1428571), wk =   0.0174927
        k(   19) = (   0.0000000   0.4285714   0.0000000), wk =   0.0174927
        k(   20) = (   0.0000000   0.4285714   0.1428571), wk =   0.0174927
        k(   21) = (   0.0000000   0.4285714   0.2857143), wk =   0.0174927
        k(   22) = (   0.0000000   0.4285714   0.4285714), wk =   0.0174927
        k(   23) = (   0.0000000   0.4285714  -0.4285714), wk =   0.0174927
        k(   24) = (   0.0000000   0.4285714  -0.2857143), wk =   0.0174927
        k(   25) = (   0.0000000   0.4285714  -0.1428571), wk =   0.0174927
        k(   26) = (   0.1428571   0.2857143  -0.0000000), wk =   0.0349854
        k(   27) = (   0.1428571   0.2857143   0.1428571), wk =   0.0174927
        k(   28) = (   0.1428571   0.2857143   0.4285714), wk =   0.0349854
        k(   29) = (   0.1428571   0.2857143  -0.4285714), wk =   0.0349854
        k(   30) = (   0.1428571   0.4285714   0.0000000), wk =   0.0349854
        k(   31) = (   0.1428571   0.4285714   0.1428571), wk =   0.0349854
        k(   32) = (   0.1428571   0.4285714   0.2857143), wk =   0.0349854
        k(   33) = (   0.1428571   0.4285714   0.4285714), wk =   0.0349854
        k(   34) = (   0.1428571   0.4285714  -0.4285714), wk =   0.0349854
        k(   35) = (   0.1428571   0.4285714  -0.2857143), wk =   0.0349854
        k(   36) = (   0.1428571   0.4285714  -0.1428571), wk =   0.0349854
        k(   37) = (   0.1428571  -0.4285714   0.0000000), wk =   0.0349854
        k(   38) = (   0.1428571  -0.4285714   0.2857143), wk =   0.0349854
        k(   39) = (   0.1428571  -0.4285714   0.4285714), wk =   0.0349854
        k(   40) = (   0.1428571  -0.4285714  -0.4285714), wk =   0.0174927
        k(   41) = (   0.2857143  -0.4285714   0.0000000), wk =   0.0349854
        k(   42) = (   0.2857143  -0.4285714   0.1428571), wk =   0.0349854
        k(   43) = (   0.2857143  -0.4285714   0.2857143), wk =   0.0174927
        k(   44) = (   0.2857143  -0.4285714  -0.2857143), wk =   0.0349854

     Dense  grid:    15353 G-vectors     FFT dimensions: (  36,  36,  36)

     Dynamical RAM for                 wfc:       0.19 MB

     Dynamical RAM for     wfc (w. buffer):      16.90 MB

     Dynamical RAM for           str. fact:       0.23 MB

     Dynamical RAM for           local pot:       0.00 MB

     Dynamical RAM for          nlocal pot:       0.38 MB

     Dynamical RAM for                qrad:       2.27 MB

     Dynamical RAM for          rho,v,vnew:       1.77 MB

     Dynamical RAM for               rhoin:       0.59 MB

     Dynamical RAM for            rho*nmix:       3.75 MB

     Dynamical RAM for           G-vectors:       0.50 MB

     Dynamical RAM for          h,s,v(r/c):       0.12 MB

     Dynamical RAM for          <psi|beta>:       0.01 MB

     Dynamical RAM for                 psi:       0.76 MB

     Dynamical RAM for                hpsi:       0.76 MB

     Dynamical RAM for                spsi:       0.76 MB

     Dynamical RAM for      wfcinit/wfcrot:       0.38 MB

     Dynamical RAM for           addusdens:      22.02 MB

     Dynamical RAM for          addusforce:      22.03 MB

     Dynamical RAM for         addusstress:      23.72 MB

     Estimated static dynamical RAM per process >      24.06 MB

     Estimated max dynamical RAM per process >      51.53 MB

     Estimated total dynamical RAM >     103.06 MB

     Check: negative core charge=   -0.000002
     Generating pointlists ...
     new r_m :   0.2526 (alat units)  1.9409 (a.u.) for type    1
     new r_m :   0.2526 (alat units)  1.9409 (a.u.) for type    2

     Initial potential from superposition of free atoms

     starting charge      17.9968, renormalised to      18.0000
     Starting wfcs are   13 randomized atomic wfcs
     Checking if some PAW data can be deallocated... 
       PAW data deallocated on    1 nodes for type:  1
       PAW data deallocated on    1 nodes for type:  2

     total cpu time spent up to now is        2.3 secs

     per-process dynamical memory:    35.4 Mb

     Self-consistent Calculation

     iteration #  1     ecut=    50.00 Ry     beta= 0.30
     Davidson diagonalization with overlap

---- Real-time Memory Report at c_bands before calling an iterative solver
            69 MiB given to the printing process from OS
            34 MiB allocation reported by mallinfo(arena+hblkhd)
           200 MiB available memory on the node where the printing process lives
------------------
     ethr =  1.00E-02,  avg # of iterations =  3.3

     total cpu time spent up to now is        5.7 secs

     total energy              =    -452.47041480 Ry
     estimated scf accuracy    <       6.61998392 Ry

     total magnetization       =     1.42 Bohr mag/cell
     absolute magnetization    =     1.42 Bohr mag/cell

     iteration #  2     ecut=    50.00 Ry     beta= 0.30
     Davidson diagonalization with overlap

---- Real-time Memory Report at c_bands before calling an iterative solver
            86 MiB given to the printing process from OS
            58 MiB allocation reported by mallinfo(arena+hblkhd)
           150 MiB available memory on the node where the printing process lives
------------------
     ethr =  1.00E-02,  avg # of iterations =  1.0

     total cpu time spent up to now is        8.5 secs

     total energy              =    -453.86772906 Ry
     estimated scf accuracy    <       3.28837150 Ry

     total magnetization       =     0.67 Bohr mag/cell
     absolute magnetization    =     0.67 Bohr mag/cell

     iteration #  3     ecut=    50.00 Ry     beta= 0.30
     Davidson diagonalization with overlap

---- Real-time Memory Report at c_bands before calling an iterative solver
            87 MiB given to the printing process from OS
            59 MiB allocation reported by mallinfo(arena+hblkhd)
           149 MiB available memory on the node where the printing process lives
------------------
     ethr =  1.00E-02,  avg # of iterations =  1.0

     total cpu time spent up to now is       11.1 secs

     total energy              =    -453.94102463 Ry
     estimated scf accuracy    <       0.00398455 Ry

     total magnetization       =     0.01 Bohr mag/cell
     absolute magnetization    =     0.07 Bohr mag/cell

     iteration #  4     ecut=    50.00 Ry     beta= 0.30
     Davidson diagonalization with overlap

---- Real-time Memory Report at c_bands before calling an iterative solver
            87 MiB given to the printing process from OS
            60 MiB allocation reported by mallinfo(arena+hblkhd)
           148 MiB available memory on the node where the printing process lives
------------------
     ethr =  2.21E-05,  avg # of iterations =  5.1

     total cpu time spent up to now is       16.5 secs

     total energy              =    -453.96749901 Ry
     estimated scf accuracy    <       0.00712270 Ry

     total magnetization       =     0.01 Bohr mag/cell
     absolute magnetization    =     0.02 Bohr mag/cell

     iteration #  5     ecut=    50.00 Ry     beta= 0.30
     Davidson diagonalization with overlap

---- Real-time Memory Report at c_bands before calling an iterative solver
            88 MiB given to the printing process from OS
            60 MiB allocation reported by mallinfo(arena+hblkhd)
           147 MiB available memory on the node where the printing process lives
------------------
     ethr =  2.21E-05,  avg # of iterations =  1.0

     total cpu time spent up to now is       19.4 secs

     total energy              =    -453.96773258 Ry
     estimated scf accuracy    <       0.00721521 Ry

     total magnetization       =     0.01 Bohr mag/cell
     absolute magnetization    =     0.03 Bohr mag/cell

     iteration #  6     ecut=    50.00 Ry     beta= 0.30
     Davidson diagonalization with overlap

---- Real-time Memory Report at c_bands before calling an iterative solver
            88 MiB given to the printing process from OS
            61 MiB allocation reported by mallinfo(arena+hblkhd)
           146 MiB available memory on the node where the printing process lives
------------------
     ethr =  2.21E-05,  avg # of iterations =  1.0

     total cpu time spent up to now is       22.0 secs

     total energy              =    -453.96793212 Ry
     estimated scf accuracy    <       0.00160433 Ry

     total magnetization       =     0.00 Bohr mag/cell
     absolute magnetization    =     0.01 Bohr mag/cell

     iteration #  7     ecut=    50.00 Ry     beta= 0.30
     Davidson diagonalization with overlap

---- Real-time Memory Report at c_bands before calling an iterative solver
            89 MiB given to the printing process from OS
            61 MiB allocation reported by mallinfo(arena+hblkhd)
           145 MiB available memory on the node where the printing process lives
------------------
     ethr =  8.91E-06,  avg # of iterations =  2.8

     total cpu time spent up to now is       13.5 secs

     total energy              =    -453.96817668 Ry
     estimated scf accuracy    <       0.00018664 Ry

     total magnetization       =     0.00 Bohr mag/cell
     absolute magnetization    =     0.01 Bohr mag/cell

     iteration #  8     ecut=    50.00 Ry     beta= 0.30
     Davidson diagonalization with overlap

---- Real-time Memory Report at c_bands before calling an iterative solver
            89 MiB given to the printing process from OS
            62 MiB allocation reported by mallinfo(arena+hblkhd)
           144 MiB available memory on the node where the printing process lives
------------------
     ethr =  1.04E-06,  avg # of iterations =  2.6

     total cpu time spent up to now is       16.4 secs

     total energy              =    -453.96817007 Ry
     estimated scf accuracy    <       0.00022642 Ry

     total magnetization       =     0.00 Bohr mag/cell
     absolute magnetization    =     0.01 Bohr mag/cell

     iteration #  9     ecut=    50.00 Ry     beta= 0.30
     Davidson diagonalization with overlap

---- Real-time Memory Report at c_bands before calling an iterative solver
            90 MiB given to the printing process from OS
            62 MiB allocation reported by mallinfo(arena+hblkhd)
           143 MiB available memory on the node where the printing process lives
------------------
     ethr =  1.04E-06,  avg # of iterations =  1.0

     total cpu time spent up to now is       19.0 secs

     total energy              =    -453.96814437 Ry
     estimated scf accuracy    <       0.00018891 Ry

     total magnetization       =     0.00 Bohr mag/cell
     absolute magnetization    =     0.00 Bohr mag/cell

     iteration # 10     ecut=    50.00 Ry     beta= 0.30
     Davidson diagonalization with overlap

---- Real-time Memory Report at c_bands before calling an iterative solver
            90 MiB given to the printing process from OS
            63 MiB allocation reported by mallinfo(arena+hblkhd)
           142 MiB available memory on the node where the printing process lives
------------------
     ethr =  1.04E-06,  avg # of iterations =  1.0

     total cpu time spent up to now is       21.8 secs

     total energy              =    -453.96813487 Ry
     estimated scf accuracy    <       0.00009496 Ry

     total magnetization       =     0.00 Bohr mag/cell
     absolute magnetization    =     0.00 Bohr mag/cell

     iteration # 11     ecut=    50.00 Ry     beta= 0.30
     Davidson diagonalization with overlap

---- Real-time Memory Report at c_bands before calling an iterative solver
            90 MiB given to the printing process from OS
            63 MiB allocation reported by mallinfo(arena+hblkhd)
           142 MiB available memory on the node where the printing process lives
------------------
     ethr =  5.28E-07,  avg # of iterations =  3.0

     total cpu time spent up to now is       25.3 secs

     total energy              =    -453.96815255 Ry
     estimated scf accuracy    <       0.00000172 Ry

     total magnetization       =     0.00 Bohr mag/cell
     absolute magnetization    =     0.00 Bohr mag/cell

     iteration # 12     ecut=    50.00 Ry     beta= 0.30
     Davidson diagonalization with overlap

---- Real-time Memory Report at c_bands before calling an iterative solver
            90 MiB given to the printing process from OS
            63 MiB allocation reported by mallinfo(arena+hblkhd)
           141 MiB available memory on the node where the printing process lives
------------------
     ethr =  9.54E-09,  avg # of iterations =  2.3

     total cpu time spent up to now is       28.2 secs

     total energy              =    -453.96815311 Ry
     estimated scf accuracy    <       0.00000203 Ry

     total magnetization       =     0.00 Bohr mag/cell
     absolute magnetization    =     0.00 Bohr mag/cell

     iteration # 13     ecut=    50.00 Ry     beta= 0.30
     Davidson diagonalization with overlap

---- Real-time Memory Report at c_bands before calling an iterative solver
            90 MiB given to the printing process from OS
            63 MiB allocation reported by mallinfo(arena+hblkhd)
           141 MiB available memory on the node where the printing process lives
------------------
     ethr =  9.54E-09,  avg # of iterations =  1.0

     total cpu time spent up to now is       30.8 secs

     total energy              =    -453.96815290 Ry
     estimated scf accuracy    <       0.00000228 Ry

     total magnetization       =     0.00 Bohr mag/cell
     absolute magnetization    =     0.00 Bohr mag/cell

     iteration # 14     ecut=    50.00 Ry     beta= 0.30
     Davidson diagonalization with overlap

---- Real-time Memory Report at c_bands before calling an iterative solver
            90 MiB given to the printing process from OS
            63 MiB allocation reported by mallinfo(arena+hblkhd)
           141 MiB available memory on the node where the printing process lives
------------------
     ethr =  9.54E-09,  avg # of iterations =  1.0

     total cpu time spent up to now is       76.8 secs

     total energy              =    -453.96815515 Ry
     estimated scf accuracy    <       0.00000158 Ry

     total magnetization       =     0.00 Bohr mag/cell
     absolute magnetization    =     0.00 Bohr mag/cell

     iteration # 15     ecut=    50.00 Ry     beta= 0.30
     Davidson diagonalization with overlap

---- Real-time Memory Report at c_bands before calling an iterative solver
            90 MiB given to the printing process from OS
            63 MiB allocation reported by mallinfo(arena+hblkhd)
           141 MiB available memory on the node where the printing process lives
------------------
     ethr =  8.80E-09,  avg # of iterations =  4.0

     total cpu time spent up to now is       81.2 secs

     total energy              =    -453.96815446 Ry
     estimated scf accuracy    <       0.00001825 Ry

     total magnetization       =    -0.00 Bohr mag/cell
     absolute magnetization    =     0.00 Bohr mag/cell

     iteration # 16     ecut=    50.00 Ry     beta= 0.30
     Davidson diagonalization with overlap

---- Real-time Memory Report at c_bands before calling an iterative solver
            90 MiB given to the printing process from OS
            63 MiB allocation reported by mallinfo(arena+hblkhd)
           141 MiB available memory on the node where the printing process lives
------------------
     ethr =  8.80E-09,  avg # of iterations =  3.3

     total cpu time spent up to now is       84.6 secs

     total energy              =    -453.96815480 Ry
     estimated scf accuracy    <       0.00000676 Ry

     total magnetization       =     0.00 Bohr mag/cell
     absolute magnetization    =     0.00 Bohr mag/cell

     iteration # 17     ecut=    50.00 Ry     beta= 0.30
     Davidson diagonalization with overlap

---- Real-time Memory Report at c_bands before calling an iterative solver
            90 MiB given to the printing process from OS
            63 MiB allocation reported by mallinfo(arena+hblkhd)
           141 MiB available memory on the node where the printing process lives
------------------
     ethr =  8.80E-09,  avg # of iterations =  1.0

     total cpu time spent up to now is       87.6 secs

     total energy              =    -453.96815394 Ry
     estimated scf accuracy    <       0.00000628 Ry

     total magnetization       =     0.00 Bohr mag/cell
     absolute magnetization    =     0.00 Bohr mag/cell

     iteration # 18     ecut=    50.00 Ry     beta= 0.30
     Davidson diagonalization with overlap

---- Real-time Memory Report at c_bands before calling an iterative solver
            90 MiB given to the printing process from OS
            63 MiB allocation reported by mallinfo(arena+hblkhd)
           140 MiB available memory on the node where the printing process lives
------------------
     ethr =  8.80E-09,  avg # of iterations =  1.5

     total cpu time spent up to now is       90.3 secs

     total energy              =    -453.96815335 Ry
     estimated scf accuracy    <       0.00000347 Ry

     total magnetization       =    -0.00 Bohr mag/cell
     absolute magnetization    =     0.00 Bohr mag/cell

     iteration # 19     ecut=    50.00 Ry     beta= 0.30
     Davidson diagonalization with overlap

---- Real-time Memory Report at c_bands before calling an iterative solver
            90 MiB given to the printing process from OS
            63 MiB allocation reported by mallinfo(arena+hblkhd)
           140 MiB available memory on the node where the printing process lives
------------------
     ethr =  8.80E-09,  avg # of iterations =  3.0

     total cpu time spent up to now is       93.6 secs

     total energy              =    -453.96815351 Ry
     estimated scf accuracy    <       0.00000038 Ry

     total magnetization       =    -0.00 Bohr mag/cell
     absolute magnetization    =     0.00 Bohr mag/cell

     iteration # 20     ecut=    50.00 Ry     beta= 0.30
     Davidson diagonalization with overlap

---- Real-time Memory Report at c_bands before calling an iterative solver
            90 MiB given to the printing process from OS
            63 MiB allocation reported by mallinfo(arena+hblkhd)
           140 MiB available memory on the node where the printing process lives
------------------
     ethr =  2.09E-09,  avg # of iterations =  3.1

     Magnetic moment per site  (integrated on atomic sphere of radius R)
     atom   1 (R=0.253)  charge=  2.8058  magn= -0.0000
     atom   2 (R=0.253)  charge= 11.0959  magn=  0.0000

     total cpu time spent up to now is       78.7 secs

     End of self-consistent calculation

 ------ SPIN UP ------------


          k = 0.0000 0.0000 0.0000 (  1917 PWs)   bands (ev):

    -8.5806  -8.5806  -8.5806  -8.5143  -8.5143  -6.2550   6.1254   6.1254
     6.1254   6.2752   9.8343   9.8343   9.8343

     occupation numbers 
     1.0000   1.0000   1.0000   1.0000   1.0000   1.0000   0.9963   0.9963
     0.9962   0.0098   0.0000   0.0000   0.0000

          k = 0.0000 0.0000 0.1750 (  1916 PWs)   bands (ev):

    -8.5939  -8.5768  -8.5768  -8.5143  -8.5143  -6.0353   3.8218   5.8502
     5.8502   7.5317  10.2451  10.2451  10.3925

     occupation numbers 
     1.0000   1.0000   1.0000   1.0000   1.0000   1.0000   1.0000   1.0000
     1.0000   0.0000   0.0000   0.0000   0.0000

          k = 0.0000 0.0000 0.3499 (  1910 PWs)   bands (ev):

    -8.6214  -8.5694  -8.5694  -8.5132  -8.5132  -5.4406   1.5462   5.3837
     5.3837   7.3143  10.7413  10.7413  12.4144

     occupation numbers 
     1.0000   1.0000   1.0000   1.0000   1.0000   1.0000   1.0000   1.0000
     1.0000   0.0000   0.0000   0.0000   0.0000

          k = 0.0000 0.0000 0.5249 (  1919 PWs)   bands (ev):

    -8.6415  -8.5649  -8.5649  -8.5109  -8.5109  -4.7705  -0.0151   5.0936
     5.0936   7.0230  10.7559  10.7559  13.8449

     occupation numbers 
     1.0000   1.0000   1.0000   1.0000   1.0000   1.0000   1.0000   1.0000
     1.0000   0.0000   0.0000   0.0000   0.0000

          k = 0.0000 0.1650-0.0583 (  1916 PWs)   bands (ev):

    -8.5939  -8.5768  -8.5768  -8.5143  -8.5143  -6.0353   3.8218   5.8502
     5.8502   7.5317  10.2451  10.2451  10.3925

     occupation numbers 
     1.0000   1.0000   1.0000   1.0000   1.0000   1.0000   1.0000   1.0000
     1.0000   0.0000   0.0000   0.0000   0.0000

          k = 0.0000 0.1650 0.1166 (  1920 PWs)   bands (ev):

    -8.6019  -8.5731  -8.5731  -8.5174  -8.5120  -5.9618   3.7643   5.3757
     5.3757   8.4154   9.1157  10.9687  10.9687

     occupation numbers 
     1.0000   1.0000   1.0000   1.0000   1.0000   1.0000   1.0000   1.0000
     1.0000   0.0000   0.0000   0.0000   0.0000

          k = 0.0000 0.1650 0.2916 (  1923 PWs)   bands (ev):

    -8.6237  -8.5667  -8.5651  -8.5194  -8.5100  -5.4873   2.0562   4.7492
     4.8757   8.5418   9.5776  11.6944  11.7377

     occupation numbers 
     1.0000   1.0000   1.0000   1.0000   1.0000   1.0000   1.0000   1.0000
     1.0000   0.0000   0.0000   0.0000   0.0000

          k = 0.0000 0.1650 0.4666 (  1919 PWs)   bands (ev):

    -8.6427  -8.5627  -8.5598  -8.5173  -8.5088  -4.8025   0.3905   4.0843
     4.6650   8.2779  10.3478  11.7209  12.5257

     occupation numbers 
     1.0000   1.0000   1.0000   1.0000   1.0000   1.0000   1.0000   1.0000
     1.0000   0.0000   0.0000   0.0000   0.0000

          k = 0.0000 0.1650-0.5832 (  1923 PWs)   bands (ev):

    -8.6475  -8.5618  -8.5597  -8.5133  -8.5110  -4.5134  -0.1567   3.7244
     4.8148   8.1910  10.5543  11.3913  13.9967

     occupation numbers 
     1.0000   1.0000   1.0000   1.0000   1.0000   1.0000   1.0000   1.0000
     1.0000   0.0000   0.0000   0.0000   0.0000

          k = 0.0000 0.1650-0.4082 (  1915 PWs)   bands (ev):

    -8.6349  -8.5644  -8.5637  -8.5152  -8.5117  -5.0350   0.8858   3.8186
     5.2626   8.3477  10.8470  11.0428  12.4484

     occupation numbers 
     1.0000   1.0000   1.0000   1.0000   1.0000   1.0000   1.0000   1.0000
     1.0000   0.0000   0.0000   0.0000   0.0000

          k = 0.0000 0.1650-0.2333 (  1923 PWs)   bands (ev):

    -8.6122  -8.5725  -8.5694  -8.5163  -8.5125  -5.6877   2.5807   4.5640
     5.7724   8.3308  10.2844  10.4344  11.5728

     occupation numbers 
     1.0000   1.0000   1.0000   1.0000   1.0000   1.0000   1.0000   1.0000
     1.0000   0.0000   0.0000   0.0000   0.0000

          k = 0.0000 0.3299-0.1166 (  1910 PWs)   bands (ev):

    -8.6214  -8.5694  -8.5694  -8.5132  -8.5132  -5.4406   1.5462   5.3837
     5.3837   7.3143  10.7413  10.7413  12.4144

     occupation numbers 
     1.0000   1.0000   1.0000   1.0000   1.0000   1.0000   1.0000   1.0000
     1.0000   0.0000   0.0000   0.0000   0.0000

          k = 0.0000 0.3299 0.0583 (  1923 PWs)   bands (ev):

    -8.6237  -8.5667  -8.5651  -8.5194  -8.5100  -5.4873   2.0562   4.7492
     4.8757   8.5418   9.5776  11.6944  11.7377

     occupation numbers 
     1.0000   1.0000   1.0000   1.0000   1.0000   1.0000   1.0000   1.0000
     1.0000   0.0000   0.0000   0.0000   0.0000

          k = 0.0000 0.3299 0.2333 (  1916 PWs)   bands (ev):

    -8.6420  -8.5557  -8.5557  -8.5259  -8.5069  -5.1559   1.5295   4.3106
     4.3106   7.9365   9.0894  13.1450  13.1450

     occupation numbers 
     1.0000   1.0000   1.0000   1.0000   1.0000   1.0000   1.0000   1.0000
     1.0000   0.0000   0.0000   0.0000   0.0000

          k = 0.0000 0.3299 0.4082 (  1922 PWs)   bands (ev):

    -8.6563  -8.5512  -8.5491  -8.5272  -8.5056  -4.5697   0.4293   3.4860
     4.0492   8.1300   9.3291  12.8543  13.6519

     occupation numbers 
     1.0000   1.0000   1.0000   1.0000   1.0000   1.0000   1.0000   1.0000
     1.0000   0.0000   0.0000   0.0000   0.0000

          k = 0.0000 0.3299-0.6415 (  1898 PWs)   bands (ev):

    -8.6582  -8.5540  -8.5487  -8.5222  -8.5085  -4.1591  -0.1812   2.6589
     4.1887   8.2728  11.1652  12.7599  13.1940

     occupation numbers 
     1.0000   1.0000   1.0000   1.0000   1.0000   1.0000   1.0000   1.0000
     1.0000   0.0000   0.0000   0.0000   0.0000

          k = 0.0000 0.3299-0.4666 (  1915 PWs)   bands (ev):

    -8.6493  -8.5588  -8.5548  -8.5157  -8.5136  -4.4439   0.2089   2.6247
     4.6775   8.6204  11.8141  12.2637  12.4708

     occupation numbers 
     1.0000   1.0000   1.0000   1.0000   1.0000   1.0000   1.0000   1.0000
     1.0000   0.0000   0.0000   0.0000   0.0000

          k = 0.0000 0.3299-0.2916 (  1915 PWs)   bands (ev):

    -8.6349  -8.5644  -8.5637  -8.5152  -8.5117  -5.0350   0.8858   3.8186
     5.2626   8.3477  10.8470  11.0428  12.4484

     occupation numbers 
     1.0000   1.0000   1.0000   1.0000   1.0000   1.0000   1.0000   1.0000
     1.0000   0.0000   0.0000   0.0000   0.0000

          k = 0.0000 0.4949-0.1750 (  1919 PWs)   bands (ev):

    -8.6415  -8.5649  -8.5649  -8.5109  -8.5109  -4.7705  -0.0151   5.0936
     5.0936   7.0230  10.7559  10.7559  13.8449

     occupation numbers 
     1.0000   1.0000   1.0000   1.0000   1.0000   1.0000   1.0000   1.0000
     1.0000   0.0000   0.0000   0.0000   0.0000

          k = 0.0000 0.4949 0.0000 (  1919 PWs)   bands (ev):

    -8.6427  -8.5627  -8.5598  -8.5173  -8.5088  -4.8025   0.3905   4.0843
     4.6650   8.2779  10.3478  11.7209  12.5257

     occupation numbers 
     1.0000   1.0000   1.0000   1.0000   1.0000   1.0000   1.0000   1.0000
     1.0000   0.0000   0.0000   0.0000   0.0000

          k = 0.0000 0.4949 0.1750 (  1922 PWs)   bands (ev):

    -8.6563  -8.5512  -8.5491  -8.5272  -8.5056  -4.5697   0.4293   3.4860
     4.0492   8.1300   9.3291  12.8543  13.6519

     occupation numbers 
     1.0000   1.0000   1.0000   1.0000   1.0000   1.0000   1.0000   1.0000
     1.0000   0.0000   0.0000   0.0000   0.0000

          k = 0.0000 0.4949 0.3499 (  1924 PWs)   bands (ev):

    -8.6693  -8.5414  -8.5414  -8.5335  -8.5029  -4.1761  -0.1737   3.6957
     3.6957   7.5984   8.0669  15.3878  15.3878

     occupation numbers 
     1.0000   1.0000   1.0000   1.0000   1.0000   1.0000   1.0000   1.0000
     1.0000   0.0000   0.0000   0.0000   0.0000

          k = 0.0000 0.4949-0.6999 (  1902 PWs)   bands (ev):

    -8.6692  -8.5442  -8.5411  -8.5307  -8.5042  -3.9605  -0.4157   3.0222
     3.7483   7.8565   8.9286  14.8220  15.0812

     occupation numbers 
     1.0000   1.0000   1.0000   1.0000   1.0000   1.0000   1.0000   1.0000
     1.0000   0.0000   0.0000   0.0000   0.0000

          k = 0.0000 0.4949-0.5249 (  1898 PWs)   bands (ev):

    -8.6582  -8.5540  -8.5487  -8.5222  -8.5085  -4.1591  -0.1812   2.6589
     4.1887   8.2728  11.1652  12.7599  13.1940

     occupation numbers 
     1.0000   1.0000   1.0000   1.0000   1.0000   1.0000   1.0000   1.0000
     1.0000   0.0000   0.0000   0.0000   0.0000

          k = 0.0000 0.4949-0.3499 (  1923 PWs)   bands (ev):

    -8.6475  -8.5618  -8.5597  -8.5133  -8.5110  -4.5134  -0.1567   3.7244
     4.8148   8.1910  10.5543  11.3913  13.9967

     occupation numbers 
     1.0000   1.0000   1.0000   1.0000   1.0000   1.0000   1.0000   1.0000
     1.0000   0.0000   0.0000   0.0000   0.0000

          k = 0.1429 0.2474-0.1750 (  1923 PWs)   bands (ev):

    -8.6237  -8.5667  -8.5651  -8.5194  -8.5100  -5.4873   2.0562   4.7492
     4.8757   8.5418   9.5776  11.6944  11.7377

     occupation numbers 
     1.0000   1.0000   1.0000   1.0000   1.0000   1.0000   1.0000   1.0000
     1.0000   0.0000   0.0000   0.0000   0.0000

          k = 0.1429 0.2474 0.0000 (  1923 PWs)   bands (ev):

    -8.6122  -8.5725  -8.5694  -8.5163  -8.5125  -5.6877   2.5807   4.5640
     5.7724   8.3308  10.2844  10.4344  11.5728

     occupation numbers 
     1.0000   1.0000   1.0000   1.0000   1.0000   1.0000   1.0000   1.0000
     1.0000   0.0000   0.0000   0.0000   0.0000

          k = 0.1429 0.2474 0.3499 (  1922 PWs)   bands (ev):

    -8.6416  -8.5605  -8.5570  -8.5215  -8.5086  -4.9488   1.0191   3.5208
     4.6164   9.1956   9.6747  11.3284  12.8983

     occupation numbers 
     1.0000   1.0000   1.0000   1.0000   1.0000   1.0000   1.0000   1.0000
     1.0000   0.0000   0.0000   0.0000   0.0000

          k = 0.1429 0.2474-0.6999 (  1907 PWs)   bands (ev):

    -8.6526  -8.5588  -8.5514  -8.5194  -8.5099  -4.3579   0.0262   2.9342
     4.1828   9.2672  10.3568  11.8563  13.4682

     occupation numbers 
     1.0000   1.0000   1.0000   1.0000   1.0000   1.0000   1.0000   1.0000
     1.0000   0.0000   0.0000   0.0000   0.0000

          k = 0.1429 0.4124-0.2333 (  1919 PWs)   bands (ev):

    -8.6427  -8.5627  -8.5598  -8.5173  -8.5088  -4.8025   0.3905   4.0843
     4.6650   8.2779  10.3478  11.7209  12.5257

     occupation numbers 
     1.0000   1.0000   1.0000   1.0000   1.0000   1.0000   1.0000   1.0000
     1.0000   0.0000   0.0000   0.0000   0.0000

          k = 0.1429 0.4124-0.0583 (  1915 PWs)   bands (ev):

    -8.6349  -8.5644  -8.5637  -8.5152  -8.5117  -5.0350   0.8858   3.8186
     5.2627   8.3477  10.8470  11.0428  12.4484

     occupation numbers 
     1.0000   1.0000   1.0000   1.0000   1.0000   1.0000   1.0000   1.0000
     1.0000   0.0000   0.0000   0.0000   0.0000

          k = 0.1429 0.4124 0.1166 (  1922 PWs)   bands (ev):

    -8.6416  -8.5605  -8.5570  -8.5215  -8.5086  -4.9488   1.0191   3.5208
     4.6164   9.1956   9.6747  11.3284  12.8983

     occupation numbers 
     1.0000   1.0000   1.0000   1.0000   1.0000   1.0000   1.0000   1.0000
     1.0000   0.0000   0.0000   0.0000   0.0000

          k = 0.1429 0.4124 0.2916 (  1922 PWs)   bands (ev):

    -8.6563  -8.5512  -8.5491  -8.5272  -8.5056  -4.5697   0.4293   3.4860
     4.0492   8.1300   9.3291  12.8543  13.6519

     occupation numbers 
     1.0000   1.0000   1.0000   1.0000   1.0000   1.0000   1.0000   1.0000
     1.0000   0.0000   0.0000   0.0000   0.0000

          k = 0.1429 0.4124-0.7582 (  1909 PWs)   bands (ev):

    -8.6633  -8.5502  -8.5436  -8.5270  -8.5062  -4.1049  -0.1718   3.0695
     3.4583   8.9833   9.2659  12.6371  14.6889

     occupation numbers 
     1.0000   1.0000   1.0000   1.0000   1.0000   1.0000   1.0000   1.0000
     1.0000   0.0000   0.0000   0.0000   0.0000

          k = 0.1429 0.4124-0.5832 (  1909 PWs)   bands (ev):

    -8.6603  -8.5549  -8.5442  -8.5226  -8.5096  -3.9932  -0.2591   2.5624
     3.5357   9.3708  11.1802  12.0024  12.7388

     occupation numbers 
     1.0000   1.0000   1.0000   1.0000   1.0000   1.0000   1.0000   1.0000
     1.0000   0.0000   0.0000   0.0000   0.0000

          k = 0.1429 0.4124-0.4082 (  1907 PWs)   bands (ev):

    -8.6526  -8.5588  -8.5514  -8.5194  -8.5099  -4.3579   0.0262   2.9342
     4.1828   9.2672  10.3568  11.8563  13.4682

     occupation numbers 
     1.0000   1.0000   1.0000   1.0000   1.0000   1.0000   1.0000   1.0000
     1.0000   0.0000   0.0000   0.0000   0.0000

          k = 0.1429-0.5774 0.1166 (  1923 PWs)   bands (ev):

    -8.6475  -8.5618  -8.5597  -8.5133  -8.5110  -4.5134  -0.1567   3.7244
     4.8148   8.1910  10.5543  11.3913  13.9967

     occupation numbers 
     1.0000   1.0000   1.0000   1.0000   1.0000   1.0000   1.0000   1.0000
     1.0000   0.0000   0.0000   0.0000   0.0000

          k = 0.1429-0.5774 0.4666 (  1907 PWs)   bands (ev):

    -8.6526  -8.5588  -8.5514  -8.5194  -8.5099  -4.3579   0.0262   2.9342
     4.1828   9.2672  10.3568  11.8563  13.4682

     occupation numbers 
     1.0000   1.0000   1.0000   1.0000   1.0000   1.0000   1.0000   1.0000
     1.0000   0.0000   0.0000   0.0000   0.0000

          k = 0.1429-0.5774 0.6415 (  1909 PWs)   bands (ev):

    -8.6633  -8.5502  -8.5436  -8.5270  -8.5062  -4.1049  -0.1718   3.0695
     3.4583   8.9833   9.2659  12.6371  14.6889

     occupation numbers 
     1.0000   1.0000   1.0000   1.0000   1.0000   1.0000   1.0000   1.0000
     1.0000   0.0000   0.0000   0.0000   0.0000

          k = 0.1429-0.5774-0.4082 (  1902 PWs)   bands (ev):

    -8.6692  -8.5442  -8.5411  -8.5307  -8.5042  -3.9605  -0.4157   3.0222
     3.7483   7.8565   8.9286  14.8220  15.0812

     occupation numbers 
     1.0000   1.0000   1.0000   1.0000   1.0000   1.0000   1.0000   1.0000
     1.0000   0.0000   0.0000   0.0000   0.0000

          k = 0.2857-0.6598 0.0583 (  1898 PWs)   bands (ev):

    -8.6582  -8.5540  -8.5487  -8.5222  -8.5085  -4.1591  -0.1812   2.6589
     4.1887   8.2728  11.1652  12.7599  13.1940

     occupation numbers 
     1.0000   1.0000   1.0000   1.0000   1.0000   1.0000   1.0000   1.0000
     1.0000   0.0000   0.0000   0.0000   0.0000

          k = 0.2857-0.6598 0.2333 (  1907 PWs)   bands (ev):

    -8.6526  -8.5588  -8.5514  -8.5194  -8.5099  -4.3579   0.0262   2.9342
     4.1828   9.2672  10.3568  11.8563  13.4682

     occupation numbers 
     1.0000   1.0000   1.0000   1.0000   1.0000   1.0000   1.0000   1.0000
     1.0000   0.0000   0.0000   0.0000   0.0000

          k = 0.2857-0.6598 0.4082 (  1915 PWs)   bands (ev):

    -8.6493  -8.5588  -8.5548  -8.5157  -8.5136  -4.4439   0.2089   2.6247
     4.6775   8.6204  11.8141  12.2637  12.4708

     occupation numbers 
     1.0000   1.0000   1.0000   1.0000   1.0000   1.0000   1.0000   1.0000
     1.0000   0.0000   0.0000   0.0000   0.0000

          k = 0.2857-0.6598-0.2916 (  1909 PWs)   bands (ev):

    -8.6603  -8.5549  -8.5442  -8.5226  -8.5096  -3.9932  -0.2591   2.5624
     3.5357   9.3708  11.1802  12.0024  12.7388

     occupation numbers 
     1.0000   1.0000   1.0000   1.0000   1.0000   1.0000   1.0000   1.0000
     1.0000   0.0000   0.0000   0.0000   0.0000

 ------ SPIN DOWN ----------


          k = 0.0000 0.0000 0.0000 (  1917 PWs)   bands (ev):

    -8.5806  -8.5806  -8.5806  -8.5143  -8.5143  -6.2551   6.1252   6.1252
     6.1252   6.2752   9.8344   9.8344   9.8344

     occupation numbers 
     1.0000   1.0000   1.0000   1.0000   1.0000   1.0000   0.9973   0.9972
     0.9972   0.0097   0.0000   0.0000   0.0000

          k = 0.0000 0.0000 0.1750 (  1916 PWs)   bands (ev):

    -8.5939  -8.5768  -8.5768  -8.5143  -8.5143  -6.0354   3.8218   5.8501
     5.8501   7.5318  10.2452  10.2452  10.3926

     occupation numbers 
     1.0000   1.0000   1.0000   1.0000   1.0000   1.0000   1.0000   1.0000
     1.0000   0.0000   0.0000   0.0000   0.0000

          k = 0.0000 0.0000 0.3499 (  1910 PWs)   bands (ev):

    -8.6214  -8.5694  -8.5694  -8.5132  -8.5132  -5.4407   1.5462   5.3836
     5.3836   7.3144  10.7414  10.7414  12.4145

     occupation numbers 
     1.0000   1.0000   1.0000   1.0000   1.0000   1.0000   1.0000   1.0000
     1.0000   0.0000   0.0000   0.0000   0.0000

          k = 0.0000 0.0000 0.5249 (  1919 PWs)   bands (ev):

    -8.6415  -8.5649  -8.5649  -8.5109  -8.5109  -4.7706  -0.0151   5.0935
     5.0935   7.0231  10.7560  10.7560  13.8451

     occupation numbers 
     1.0000   1.0000   1.0000   1.0000   1.0000   1.0000   1.0000   1.0000
     1.0000   0.0000   0.0000   0.0000   0.0000

          k = 0.0000 0.1650-0.0583 (  1916 PWs)   bands (ev):

    -8.5939  -8.5768  -8.5768  -8.5143  -8.5143  -6.0354   3.8218   5.8501
     5.8501   7.5318  10.2452  10.2452  10.3926

     occupation numbers 
     1.0000   1.0000   1.0000   1.0000   1.0000   1.0000   1.0000   1.0000
     1.0000   0.0000   0.0000   0.0000   0.0000

          k = 0.0000 0.1650 0.1166 (  1920 PWs)   bands (ev):

    -8.6019  -8.5731  -8.5731  -8.5174  -8.5120  -5.9619   3.7643   5.3755
     5.3755   8.4154   9.1159  10.9687  10.9687

     occupation numbers 
     1.0000   1.0000   1.0000   1.0000   1.0000   1.0000   1.0000   1.0000
     1.0000   0.0000   0.0000   0.0000   0.0000

          k = 0.0000 0.1650 0.2916 (  1923 PWs)   bands (ev):

    -8.6237  -8.5667  -8.5651  -8.5194  -8.5100  -5.4874   2.0561   4.7492
     4.8756   8.5418   9.5777  11.6944  11.7377

     occupation numbers 
     1.0000   1.0000   1.0000   1.0000   1.0000   1.0000   1.0000   1.0000
     1.0000   0.0000   0.0000   0.0000   0.0000

          k = 0.0000 0.1650 0.4666 (  1919 PWs)   bands (ev):

    -8.6427  -8.5627  -8.5598  -8.5173  -8.5088  -4.8026   0.3905   4.0842
     4.6649   8.2779  10.3479  11.7209  12.5258

     occupation numbers 
     1.0000   1.0000   1.0000   1.0000   1.0000   1.0000   1.0000   1.0000
     1.0000   0.0000   0.0000   0.0000   0.0000

          k = 0.0000 0.1650-0.5832 (  1923 PWs)   bands (ev):

    -8.6475  -8.5618  -8.5597  -8.5133  -8.5110  -4.5135  -0.1567   3.7244
     4.8147   8.1911  10.5544  11.3914  13.9967

     occupation numbers 
     1.0000   1.0000   1.0000   1.0000   1.0000   1.0000   1.0000   1.0000
     1.0000   0.0000   0.0000   0.0000   0.0000

          k = 0.0000 0.1650-0.4082 (  1915 PWs)   bands (ev):

    -8.6349  -8.5645  -8.5638  -8.5152  -8.5117  -5.0351   0.8858   3.8185
     5.2625   8.3477  10.8470  11.0429  12.4485

     occupation numbers 
     1.0000   1.0000   1.0000   1.0000   1.0000   1.0000   1.0000   1.0000
     1.0000   0.0000   0.0000   0.0000   0.0000

          k = 0.0000 0.1650-0.2333 (  1923 PWs)   bands (ev):

    -8.6122  -8.5725  -8.5694  -8.5162  -8.5125  -5.6878   2.5806   4.5639
     5.7722   8.3308  10.2845  10.4345  11.5728

     occupation numbers 
     1.0000   1.0000   1.0000   1.0000   1.0000   1.0000   1.0000   1.0000
     1.0000   0.0000   0.0000   0.0000   0.0000

          k = 0.0000 0.3299-0.1166 (  1910 PWs)   bands (ev):

    -8.6214  -8.5694  -8.5694  -8.5132  -8.5132  -5.4407   1.5462   5.3836
     5.3836   7.3144  10.7414  10.7414  12.4145

     occupation numbers 
     1.0000   1.0000   1.0000   1.0000   1.0000   1.0000   1.0000   1.0000
     1.0000   0.0000   0.0000   0.0000   0.0000

          k = 0.0000 0.3299 0.0583 (  1923 PWs)   bands (ev):

    -8.6237  -8.5667  -8.5651  -8.5194  -8.5100  -5.4874   2.0561   4.7492
     4.8756   8.5418   9.5777  11.6944  11.7377

     occupation numbers 
     1.0000   1.0000   1.0000   1.0000   1.0000   1.0000   1.0000   1.0000
     1.0000   0.0000   0.0000   0.0000   0.0000

          k = 0.0000 0.3299 0.2333 (  1916 PWs)   bands (ev):

    -8.6421  -8.5557  -8.5557  -8.5259  -8.5069  -5.1560   1.5295   4.3105
     4.3105   7.9366   9.0895  13.1450  13.1450

     occupation numbers 
     1.0000   1.0000   1.0000   1.0000   1.0000   1.0000   1.0000   1.0000
     1.0000   0.0000   0.0000   0.0000   0.0000

          k = 0.0000 0.3299 0.4082 (  1922 PWs)   bands (ev):

    -8.6563  -8.5512  -8.5491  -8.5272  -8.5056  -4.5698   0.4293   3.4860
     4.0491   8.1301   9.3292  12.8543  13.6520

     occupation numbers 
     1.0000   1.0000   1.0000   1.0000   1.0000   1.0000   1.0000   1.0000
     1.0000   0.0000   0.0000   0.0000   0.0000

          k = 0.0000 0.3299-0.6415 (  1898 PWs)   bands (ev):

    -8.6582  -8.5540  -8.5487  -8.5222  -8.5085  -4.1592  -0.1812   2.6589
     4.1886   8.2729  11.1652  12.7600  13.1941

     occupation numbers 
     1.0000   1.0000   1.0000   1.0000   1.0000   1.0000   1.0000   1.0000
     1.0000   0.0000   0.0000   0.0000   0.0000

          k = 0.0000 0.3299-0.4666 (  1915 PWs)   bands (ev):

    -8.6493  -8.5588  -8.5548  -8.5157  -8.5136  -4.4440   0.2089   2.6247
     4.6774   8.6205  11.8141  12.2638  12.4709

     occupation numbers 
     1.0000   1.0000   1.0000   1.0000   1.0000   1.0000   1.0000   1.0000
     1.0000   0.0000   0.0000   0.0000   0.0000

          k = 0.0000 0.3299-0.2916 (  1915 PWs)   bands (ev):

    -8.6350  -8.5645  -8.5638  -8.5152  -8.5117  -5.0351   0.8858   3.8185
     5.2625   8.3477  10.8470  11.0429  12.4485

     occupation numbers 
     1.0000   1.0000   1.0000   1.0000   1.0000   1.0000   1.0000   1.0000
     1.0000   0.0000   0.0000   0.0000   0.0000

          k = 0.0000 0.4949-0.1750 (  1919 PWs)   bands (ev):

    -8.6415  -8.5649  -8.5649  -8.5109  -8.5109  -4.7706  -0.0151   5.0935
     5.0935   7.0231  10.7560  10.7560  13.8451

     occupation numbers 
     1.0000   1.0000   1.0000   1.0000   1.0000   1.0000   1.0000   1.0000
     1.0000   0.0000   0.0000   0.0000   0.0000

          k = 0.0000 0.4949 0.0000 (  1919 PWs)   bands (ev):

    -8.6427  -8.5627  -8.5598  -8.5173  -8.5088  -4.8026   0.3905   4.0842
     4.6649   8.2779  10.3479  11.7209  12.5258

     occupation numbers 
     1.0000   1.0000   1.0000   1.0000   1.0000   1.0000   1.0000   1.0000
     1.0000   0.0000   0.0000   0.0000   0.0000

          k = 0.0000 0.4949 0.1750 (  1922 PWs)   bands (ev):

    -8.6563  -8.5512  -8.5491  -8.5272  -8.5056  -4.5698   0.4293   3.4859
     4.0491   8.1301   9.3292  12.8543  13.6520

     occupation numbers 
     1.0000   1.0000   1.0000   1.0000   1.0000   1.0000   1.0000   1.0000
     1.0000   0.0000   0.0000   0.0000   0.0000

          k = 0.0000 0.4949 0.3499 (  1924 PWs)   bands (ev):

    -8.6694  -8.5414  -8.5414  -8.5335  -8.5029  -4.1762  -0.1737   3.6956
     3.6956   7.5986   8.0670  15.3879  15.3879

     occupation numbers 
     1.0000   1.0000   1.0000   1.0000   1.0000   1.0000   1.0000   1.0000
     1.0000   0.0000   0.0000   0.0000   0.0000

          k = 0.0000 0.4949-0.6999 (  1902 PWs)   bands (ev):

    -8.6692  -8.5442  -8.5411  -8.5307  -8.5042  -3.9606  -0.4157   3.0221
     3.7482   7.8566   8.9287  14.8221  15.0812

     occupation numbers 
     1.0000   1.0000   1.0000   1.0000   1.0000   1.0000   1.0000   1.0000
     1.0000   0.0000   0.0000   0.0000   0.0000

          k = 0.0000 0.4949-0.5249 (  1898 PWs)   bands (ev):

    -8.6582  -8.5540  -8.5487  -8.5222  -8.5085  -4.1592  -0.1812   2.6589
     4.1886   8.2729  11.1652  12.7600  13.1941

     occupation numbers 
     1.0000   1.0000   1.0000   1.0000   1.0000   1.0000   1.0000   1.0000
     1.0000   0.0000   0.0000   0.0000   0.0000

          k = 0.0000 0.4949-0.3499 (  1923 PWs)   bands (ev):

    -8.6475  -8.5618  -8.5597  -8.5133  -8.5110  -4.5135  -0.1567   3.7244
     4.8147   8.1911  10.5544  11.3914  13.9967

     occupation numbers 
     1.0000   1.0000   1.0000   1.0000   1.0000   1.0000   1.0000   1.0000
     1.0000   0.0000   0.0000   0.0000   0.0000

          k = 0.1429 0.2474-0.1750 (  1923 PWs)   bands (ev):

    -8.6237  -8.5667  -8.5651  -8.5194  -8.5100  -5.4874   2.0561   4.7492
     4.8756   8.5418   9.5777  11.6944  11.7377

     occupation numbers 
     1.0000   1.0000   1.0000   1.0000   1.0000   1.0000   1.0000   1.0000
     1.0000   0.0000   0.0000   0.0000   0.0000

          k = 0.1429 0.2474 0.0000 (  1923 PWs)   bands (ev):

    -8.6122  -8.5725  -8.5694  -8.5162  -8.5125  -5.6878   2.5806   4.5639
     5.7722   8.3308  10.2845  10.4345  11.5728

     occupation numbers 
     1.0000   1.0000   1.0000   1.0000   1.0000   1.0000   1.0000   1.0000
     1.0000   0.0000   0.0000   0.0000   0.0000

          k = 0.1429 0.2474 0.3499 (  1922 PWs)   bands (ev):

    -8.6416  -8.5605  -8.5570  -8.5215  -8.5086  -4.9489   1.0191   3.5207
     4.6164   9.1956   9.6748  11.3285  12.8983

     occupation numbers 
     1.0000   1.0000   1.0000   1.0000   1.0000   1.0000   1.0000   1.0000
     1.0000   0.0000   0.0000   0.0000   0.0000

          k = 0.1429 0.2474-0.6999 (  1907 PWs)   bands (ev):

    -8.6526  -8.5588  -8.5514  -8.5194  -8.5099  -4.3580   0.0262   2.9342
     4.1828   9.2672  10.3569  11.8564  13.4683

     occupation numbers 
     1.0000   1.0000   1.0000   1.0000   1.0000   1.0000   1.0000   1.0000
     1.0000   0.0000   0.0000   0.0000   0.0000

          k = 0.1429 0.4124-0.2333 (  1919 PWs)   bands (ev):

    -8.6427  -8.5627  -8.5598  -8.5173  -8.5088  -4.8026   0.3905   4.0842
     4.6649   8.2779  10.3479  11.7209  12.5258

     occupation numbers 
     1.0000   1.0000   1.0000   1.0000   1.0000   1.0000   1.0000   1.0000
     1.0000   0.0000   0.0000   0.0000   0.0000

          k = 0.1429 0.4124-0.0583 (  1915 PWs)   bands (ev):

    -8.6350  -8.5645  -8.5638  -8.5152  -8.5117  -5.0351   0.8858   3.8185
     5.2625   8.3477  10.8470  11.0429  12.4485

     occupation numbers 
     1.0000   1.0000   1.0000   1.0000   1.0000   1.0000   1.0000   1.0000
     1.0000   0.0000   0.0000   0.0000   0.0000

          k = 0.1429 0.4124 0.1166 (  1922 PWs)   bands (ev):

    -8.6416  -8.5605  -8.5570  -8.5215  -8.5086  -4.9489   1.0191   3.5207
     4.6164   9.1956   9.6748  11.3285  12.8983

     occupation numbers 
     1.0000   1.0000   1.0000   1.0000   1.0000   1.0000   1.0000   1.0000
     1.0000   0.0000   0.0000   0.0000   0.0000

          k = 0.1429 0.4124 0.2916 (  1922 PWs)   bands (ev):

    -8.6563  -8.5512  -8.5491  -8.5272  -8.5056  -4.5698   0.4293   3.4860
     4.0491   8.1301   9.3292  12.8543  13.6520

     occupation numbers 
     1.0000   1.0000   1.0000   1.0000   1.0000   1.0000   1.0000   1.0000
     1.0000   0.0000   0.0000   0.0000   0.0000

          k = 0.1429 0.4124-0.7582 (  1909 PWs)   bands (ev):

    -8.6633  -8.5502  -8.5436  -8.5270  -8.5062  -4.1050  -0.1718   3.0695
     3.4583   8.9834   9.2660  12.6372  14.6889

     occupation numbers 
     1.0000   1.0000   1.0000   1.0000   1.0000   1.0000   1.0000   1.0000
     1.0000   0.0000   0.0000   0.0000   0.0000

          k = 0.1429 0.4124-0.5832 (  1909 PWs)   bands (ev):

    -8.6604  -8.5549  -8.5442  -8.5226  -8.5096  -3.9933  -0.2591   2.5624
     3.5356   9.3709  11.1803  12.0025  12.7389

     occupation numbers 
     1.0000   1.0000   1.0000   1.0000   1.0000   1.0000   1.0000   1.0000
     1.0000   0.0000   0.0000   0.0000   0.0000

          k = 0.1429 0.4124-0.4082 (  1907 PWs)   bands (ev):

    -8.6526  -8.5588  -8.5514  -8.5194  -8.5099  -4.3580   0.0262   2.9342
     4.1828   9.2672  10.3569  11.8564  13.4683

     occupation numbers 
     1.0000   1.0000   1.0000   1.0000   1.0000   1.0000   1.0000   1.0000
     1.0000   0.0000   0.0000   0.0000   0.0000

          k = 0.1429-0.5774 0.1166 (  1923 PWs)   bands (ev):

    -8.6475  -8.5618  -8.5597  -8.5133  -8.5110  -4.5135  -0.1567   3.7244
     4.8147   8.1911  10.5544  11.3914  13.9967

     occupation numbers 
     1.0000   1.0000   1.0000   1.0000   1.0000   1.0000   1.0000   1.0000
     1.0000   0.0000   0.0000   0.0000   0.0000

          k = 0.1429-0.5774 0.4666 (  1907 PWs)   bands (ev):

    -8.6526  -8.5588  -8.5514  -8.5194  -8.5099  -4.3580   0.0262   2.9342
     4.1828   9.2672  10.3569  11.8564  13.4683

     occupation numbers 
     1.0000   1.0000   1.0000   1.0000   1.0000   1.0000   1.0000   1.0000
     1.0000   0.0000   0.0000   0.0000   0.0000

          k = 0.1429-0.5774 0.6415 (  1909 PWs)   bands (ev):

    -8.6633  -8.5502  -8.5436  -8.5270  -8.5062  -4.1050  -0.1718   3.0695
     3.4583   8.9834   9.2660  12.6372  14.6889

     occupation numbers 
     1.0000   1.0000   1.0000   1.0000   1.0000   1.0000   1.0000   1.0000
     1.0000   0.0000   0.0000   0.0000   0.0000

          k = 0.1429-0.5774-0.4082 (  1902 PWs)   bands (ev):

    -8.6692  -8.5442  -8.5411  -8.5307  -8.5042  -3.9606  -0.4157   3.0221
     3.7482   7.8566   8.9287  14.8221  15.0812

     occupation numbers 
     1.0000   1.0000   1.0000   1.0000   1.0000   1.0000   1.0000   1.0000
     1.0000   0.0000   0.0000   0.0000   0.0000

          k = 0.2857-0.6598 0.0583 (  1898 PWs)   bands (ev):

    -8.6582  -8.5540  -8.5487  -8.5222  -8.5085  -4.1592  -0.1812   2.6589
     4.1886   8.2729  11.1652  12.7600  13.1941

     occupation numbers 
     1.0000   1.0000   1.0000   1.0000   1.0000   1.0000   1.0000   1.0000
     1.0000   0.0000   0.0000   0.0000   0.0000

          k = 0.2857-0.6598 0.2333 (  1907 PWs)   bands (ev):

    -8.6526  -8.5588  -8.5514  -8.5194  -8.5099  -4.3580   0.0262   2.9342
     4.1828   9.2672  10.3569  11.8564  13.4683

     occupation numbers 
     1.0000   1.0000   1.0000   1.0000   1.0000   1.0000   1.0000   1.0000
     1.0000   0.0000   0.0000   0.0000   0.0000

          k = 0.2857-0.6598 0.4082 (  1915 PWs)   bands (ev):

    -8.6493  -8.5588  -8.5548  -8.5157  -8.5136  -4.4440   0.2089   2.6247
     4.6774   8.6205  11.8141  12.2638  12.4709

     occupation numbers 
     1.0000   1.0000   1.0000   1.0000   1.0000   1.0000   1.0000   1.0000
     1.0000   0.0000   0.0000   0.0000   0.0000

          k = 0.2857-0.6598-0.2916 (  1909 PWs)   bands (ev):

    -8.6604  -8.5549  -8.5442  -8.5226  -8.5096  -3.9934  -0.2591   2.5624
     3.5356   9.3709  11.1803  12.0025  12.7389

     occupation numbers 
     1.0000   1.0000   1.0000   1.0000   1.0000   1.0000   1.0000   1.0000
     1.0000   0.0000   0.0000   0.0000   0.0000

     the Fermi energy is     6.1874 ev

!    total energy              =    -453.96815361 Ry

     total all-electron energy =     -8410.100173 Ry
     estimated scf accuracy    <          3.1E-09 Ry
     smearing contrib. (-TS)   =       0.00000644 Ry
     internal energy E=F+TS    =    -453.96816005 Ry

     The total energy is F=E-TS. E is the sum of the following terms:
     one-electron contribution =    -121.61265271 Ry
     hartree contribution      =      76.04992924 Ry
     xc contribution           =     -49.66477154 Ry
     ewald contribution        =     -91.44956394 Ry
     one-center paw contrib.   =    -267.29110110 Ry
      -> PAW hartree energy AE =       7.52239484 Ry
      -> PAW hartree energy PS =      -7.50357771 Ry
      -> PAW xc energy AE      =    -167.06934610 Ry
      -> PAW xc energy PS      =      10.97015486 Ry
      -> total E_H with PAW    =      76.06874637 Ry
      -> total E_XC with PAW   =    -205.76396278 Ry

     total magnetization       =    -0.00 Bohr mag/cell
     absolute magnetization    =     0.00 Bohr mag/cell

     convergence has been achieved in  20 iterations

     Forces acting on atoms (cartesian axes, Ry/au):

     atom    1 type  1   force =     0.00000000    0.00000000    0.00001328
     atom    2 type  2   force =     0.00000000    0.00000000   -0.00001328
     The non-local contrib.  to forces
     atom    1 type  1   force =     0.00000000    0.00000000    0.00000131
     atom    2 type  2   force =     0.00000000    0.00000000    0.00000007
     The ionic contribution  to forces
     atom    1 type  1   force =     0.00000000   -0.00000000   -0.00000000
     atom    2 type  2   force =    -0.00000000   -0.00000000    0.00000000
     The local contribution  to forces
     atom    1 type  1   force =    -0.00000000    0.00000000   -0.00000121
     atom    2 type  2   force =     0.00000000   -0.00000000   -0.00000056
     The core correction contribution to forces
     atom    1 type  1   force =    -0.00000000   -0.00000000   -0.00000025
     atom    2 type  2   force =    -0.00000000    0.00000000   -0.00000000
     The Hubbard contrib.    to forces
     atom    1 type  1   force =     0.00000000    0.00000000    0.00000000
     atom    2 type  2   force =     0.00000000    0.00000000    0.00000000
     The SCF correction term to forces
     atom    1 type  1   force =     0.00000000   -0.00000000   -0.00000009
     atom    2 type  2   force =     0.00000000    0.00000000   -0.00002630

     Total force =     0.000019     Total SCF correction =     0.000026
     SCF correction compared to forces is large: reduce conv_thr to get better values


     Computing stress (Cartesian axis) and pressure

          total   stress  (Ry/bohr**3)                   (kbar)     P=       -0.72
  -0.00000490   0.00000000  -0.00000000           -0.72        0.00       -0.00
   0.00000000  -0.00000490  -0.00000000            0.00       -0.72       -0.00
  -0.00000000   0.00000000  -0.00000491           -0.00        0.00       -0.72

     kinetic stress (kbar)   6461.52      0.00      0.00
                                0.00   6461.52      0.00
                                0.00      0.00   6461.52

     local   stress (kbar)  -1094.27     -0.00     -0.00
                               -0.00  -1094.27     -0.00
                               -0.00     -0.00  -1094.27

     nonloc. stress (kbar)   1308.34      0.00      0.00
                                0.00   1308.34      0.00
                                0.00      0.00   1308.34

     hartree stress (kbar)  11625.85      0.00     -0.00
                                0.00  11625.85      0.00
                               -0.00      0.00  11625.85

     exc-cor stress (kbar)   6145.15      0.00      0.00
                                0.00   6145.15     -0.00
                                0.00     -0.00   6145.15

     corecor stress (kbar) -10467.30     -0.00      0.00
                               -0.00 -10467.30     -0.00
                                0.00     -0.00 -10467.30

     ewald   stress (kbar) -13980.01      0.00     -0.00
                                0.00 -13980.01     -0.00
                               -0.00     -0.00 -13980.01

     hubbard stress (kbar)      0.00      0.00      0.00
                                0.00      0.00      0.00
                                0.00      0.00      0.00

     DFT-D   stress (kbar)      0.00      0.00      0.00
                                0.00      0.00      0.00
                                0.00      0.00      0.00

     XDM     stress (kbar)      0.00      0.00      0.00
                                0.00      0.00      0.00
                                0.00      0.00      0.00

     dft-nl  stress (kbar)      0.00      0.00      0.00
                                0.00      0.00      0.00
                                0.00      0.00      0.00

     TS-vdW  stress (kbar)      0.00      0.00      0.00
                                0.00      0.00      0.00
                                0.00      0.00      0.00


                                0.00      0.00      0.00
                                0.00      0.00      0.00


                                0.00      0.00      0.00


     Writing all to output data dir ./outputs/gaas.save/

     init_run     :      1.94s CPU      2.10s WALL (       1 calls)
     electrons    :     59.60s CPU     76.36s WALL (       1 calls)
     forces       :      0.30s CPU      0.30s WALL (       1 calls)
     stress       :      0.95s CPU      0.96s WALL (       1 calls)

     Called by init_run:
     wfcinit      :      0.87s CPU      0.94s WALL (       1 calls)
     wfcinit:atom :      0.02s CPU      0.02s WALL (      88 calls)
     wfcinit:wfcr :      0.77s CPU      0.83s WALL (      88 calls)
     potinit      :      0.43s CPU      0.45s WALL (       1 calls)
     hinit0       :      0.56s CPU      0.62s WALL (       1 calls)

     Called by electrons:
     c_bands      :     42.22s CPU     58.29s WALL (      20 calls)
     sum_band     :      9.19s CPU      9.66s WALL (      20 calls)
     v_of_rho     :      0.60s CPU      0.62s WALL (      21 calls)
     v_h          :      0.01s CPU      0.01s WALL (      21 calls)
     v_xc         :      0.65s CPU      0.67s WALL (      23 calls)
     newd         :      0.76s CPU      0.78s WALL (      21 calls)
     PAW_pot      :      7.14s CPU      7.32s WALL (      21 calls)
     mix_rho      :      0.09s CPU      0.09s WALL (      20 calls)

     Called by c_bands:
     init_us_2    :      1.16s CPU      1.22s WALL (    3784 calls)
     init_us_2:cp :      1.15s CPU      1.21s WALL (    3784 calls)
     cegterg      :     40.34s CPU     56.28s WALL (    1760 calls)

     Called by sum_band:
     sum_band:wei :      0.02s CPU      0.02s WALL (      20 calls)
     sum_band:loo :      7.67s CPU      8.09s WALL (      20 calls)
     sum_band:buf :      0.06s CPU      0.06s WALL (    1760 calls)
     sum_band:ini :      0.53s CPU      0.55s WALL (    1760 calls)
     sum_band:cal :      0.56s CPU      0.59s WALL (    1760 calls)
     sum_band:bec :      0.02s CPU      0.02s WALL (    1760 calls)
     addusdens    :      1.42s CPU      1.46s WALL (      20 calls)
     addusd:skk   :      0.00s CPU      0.00s WALL (      40 calls)
     addusd:dgemm :      0.30s CPU      0.31s WALL (      80 calls)
     addusd:qvan2 :      1.06s CPU      1.08s WALL (      80 calls)

     Called by *egterg:
     cdiaghg      :      1.33s CPU      1.40s WALL (    5543 calls)
     cegterg:over :      1.72s CPU      1.84s WALL (    3783 calls)
     cegterg:upda :      1.22s CPU      1.27s WALL (    3783 calls)
     cegterg:last :      0.75s CPU      0.79s WALL (    1847 calls)
     h_psi        :     33.29s CPU     48.87s WALL (    5631 calls)
     s_psi        :      1.23s CPU      1.30s WALL (    5631 calls)
     g_psi        :      0.44s CPU      0.47s WALL (    3783 calls)

     Called by h_psi:
     h_psi:calbec :      1.47s CPU      1.56s WALL (    5631 calls)
     vloc_psi     :     30.39s CPU     45.80s WALL (    5631 calls)
     add_vuspsi   :      1.28s CPU      1.34s WALL (    5631 calls)

     General routines
     calbec       :      2.16s CPU      2.30s WALL (    7831 calls)
     fft          :      0.51s CPU      0.55s WALL (     483 calls)
     ffts         :      0.01s CPU      0.01s WALL (      40 calls)
     fftw         :     32.27s CPU     47.83s WALL (  134672 calls)

     Parallel routines

     PAW routines
     PAW_pot      :      7.14s CPU      7.32s WALL (      21 calls)
     PAW_symme    :      0.00s CPU      0.00s WALL (      41 calls)

     PWSCF        :   1m 3.09s CPU   1m20.10s WALL


   This run was terminated on:   6:55:20  18Dec2024            

=------------------------------------------------------------------------------=
   JOB DONE.
=------------------------------------------------------------------------------=
