
     Program BANDS v.7.0 starts on 10Dec2024 at 14:58:49 

     This program is part of the open-source Quantum ESPRESSO suite
     for quantum simulation of materials; please cite
         "P. Giannozzi et al., J. Phys.:Condens. Matter 21 395502 (2009);
         "P. Giannozzi et al., J. Phys.:Condens. Matter 29 465901 (2017);
         "P. Giannozzi et al., J. Chem. Phys. 152 154105 (2020);
          URL http://www.quantum-espresso.org", 
     in publications or presentations arising from this work. More details at
     http://www.quantum-espresso.org/quote

     Parallel version (MPI & OpenMP), running on       2 processor cores
     Number of MPI processes:                 1
     Threads/MPI process:                     2

     MPI processes distributed on     1 nodes
     99 MiB available memory on the printing compute node when the environment starts


     Reading xml data from directory:

     ./outputs/basic.save/
     Message from routine volume:
     axis vectors are left-handed
     file Si.pbe-n-kjpaw_psl.1.0.0.UPF: wavefunction(s)  3S 3P renormalized

     IMPORTANT: XC functional enforced from input :
     Exchange-correlation= PBE
                           (   1   4   3   4   0   0   0)
     Any further DFT definition will be discarded
     Please, verify this is what you really want


     G-vector sticks info
     --------------------
     sticks:   dense  smooth     PW     G-vecs:    dense   smooth      PW
     Sum         733     733    211                12939    12939    2109

     Using Slab Decomposition

     Reading collected, re-writing distributed wavefunctions
     high-symmetry point:  0.0000 0.0000 0.0000   x coordinate   0.0000
     high-symmetry point:  0.0000 1.0000 0.0000   x coordinate   1.0000
     high-symmetry point:  0.0000 1.0000 0.5000   x coordinate   1.5000
     high-symmetry point:  0.0100 0.7400 0.7400   x coordinate   1.8540
     high-symmetry point:  0.0000 0.0000 0.0000   x coordinate   2.9005
     high-symmetry point:  0.5000 0.5000 0.5000   x coordinate   3.7666
     high-symmetry point:  0.2500 1.0000 0.2500   x coordinate   4.3789
     high-symmetry point:  0.0000 1.0000 0.5000   x coordinate   4.7325
     high-symmetry point:  0.5000 0.5000 0.5000   x coordinate   5.4396
     high-symmetry point:  0.0100 0.7400 0.7400   x coordinate   6.0357
     high-symmetry point:  0.0000 1.0000 0.0000   x coordinate   6.8201

     Plottable bands (eV) written to file siliconbands.dat.gnu
     Bands written to file siliconbands.dat

 **************************************************************************

                    xk=(   0.00000,   0.00000,   0.00000  )

     point group O_h (m-3m) 
     there are 10 classes
     the character table:

       E     8C3   3C2   6C4   6C2'  i     8S6   3s_h  6S4   6s_d 
A_1g   1.00  1.00  1.00  1.00  1.00  1.00  1.00  1.00  1.00  1.00
A_2g   1.00  1.00  1.00 -1.00 -1.00  1.00  1.00  1.00 -1.00 -1.00
E_g    2.00 -1.00  2.00  0.00  0.00  2.00 -1.00  2.00  0.00  0.00
T_1g   3.00  0.00 -1.00  1.00 -1.00  3.00  0.00 -1.00  1.00 -1.00
T_2g   3.00  0.00 -1.00 -1.00  1.00  3.00  0.00 -1.00 -1.00  1.00
A_1u   1.00  1.00  1.00  1.00  1.00 -1.00 -1.00 -1.00 -1.00 -1.00
A_2u   1.00  1.00  1.00 -1.00 -1.00 -1.00 -1.00 -1.00  1.00  1.00
E_u    2.00 -1.00  2.00  0.00  0.00 -2.00  1.00 -2.00  0.00  0.00
T_1u   3.00  0.00 -1.00  1.00 -1.00 -3.00  0.00  1.00 -1.00  1.00
T_2u   3.00  0.00 -1.00 -1.00  1.00 -3.00  0.00  1.00  1.00 -1.00

     the symmetry operations in each class and the name of the first element:

     E        1
                                                                 
     8C3     17   19   20   18   24   21   22   23
                                                                 
     3C2      2    4    3
                                                                 
     6C4      7    8   15   16   12   11
                                                                 
     6C2'     5    6   14   13   10    9
                                                                 
     i       25
                                                                 
     8S6     41   43   44   42   48   45   46   47
                                                                 
     3s_h    26   28   27
                                                                 
     6S4     31   32   39   40   36   35
                                                                 
     6s_d    29   30   38   37   34   33
                                                                 

     Band symmetry, O_h (m-3m)  point group:

     e(  1 -  1) =     -5.75806  eV     1   --> A_1g G_1   G_1+
     e(  2 -  4) =      6.20587  eV     3   --> T_2g G_25' G_5+
     e(  5 -  7) =      8.76718  eV     3   --> T_1u G_15  G_4-
     e(  8 -  8) =      9.56548  eV     1   --> A_2u G_2'  G_2-
     e(  9 - 10) =     13.92981  eV     2   --> E_u  G_12' G_3-

 **************************************************************************

 **************************************************************************

                    xk=(   0.00000,   0.03333,   0.00000  )

     point group C_4v (4mm) 
     there are  5 classes
     the character table:

       E     2C4   C2    2s_v  2s_d 
A_1    1.00  1.00  1.00  1.00  1.00
A_2    1.00  1.00  1.00 -1.00 -1.00
B_1    1.00 -1.00  1.00  1.00 -1.00
B_2    1.00 -1.00  1.00 -1.00  1.00
E      2.00  0.00 -2.00  0.00  0.00

     the symmetry operations in each class and the name of the first element:

     E        1
                                                                 
     2C4      3    4
                                                                 
     C2       2
                                                                 
     2s_v     5    6
                                                                 
     2s_d     7    8
                                                                 

     Band symmetry, C_4v (4mm)  point group:

     e(  1 -  1) =     -5.75319  eV     1   --> A_1  G_1 D_1   
     e(  2 -  2) =      6.17232  eV     1   --> B_2  G_4 D_2'  
     e(  3 -  4) =      6.18469  eV     2   --> E    G_5 D_5   
     e(  5 -  5) =      8.75506  eV     1   --> A_1  G_1 D_1   
     e(  6 -  7) =      8.79436  eV     2   --> E    G_5 D_5   
     e(  8 -  8) =      9.59837  eV     1   --> B_2  G_4 D_2'  
     e(  9 -  9) =     13.88958  eV     1   --> B_2  G_4 D_2'  
     e( 10 - 10) =     13.93519  eV     1   --> A_2  G_2 D_1'  

 **************************************************************************

 **************************************************************************

                    xk=(   0.00000,   0.06667,   0.00000  )

     Band symmetry, C_4v (4mm)  point group:

     e(  1 -  1) =     -5.73860  eV     1   --> A_1  G_1 D_1   
     e(  2 -  2) =      6.07557  eV     1   --> B_2  G_4 D_2'  
     e(  3 -  4) =      6.12379  eV     2   --> E    G_5 D_5   
     e(  5 -  5) =      8.71937  eV     1   --> A_1  G_1 D_1   
     e(  6 -  7) =      8.87323  eV     2   --> E    G_5 D_5   
     e(  8 -  8) =      9.69252  eV     1   --> B_2  G_4 D_2'  
     e(  9 -  9) =     13.77507  eV     1   --> B_2  G_4 D_2'  
     e( 10 - 10) =     13.95135  eV     1   --> A_2  G_2 D_1'  

 **************************************************************************

 **************************************************************************

                    xk=(   0.00000,   0.10000,   0.00000  )

     Band symmetry, C_4v (4mm)  point group:

     e(  1 -  1) =     -5.71429  eV     1   --> A_1  G_1 D_1   
     e(  2 -  2) =      5.92547  eV     1   --> B_2  G_4 D_2'  
     e(  3 -  4) =      6.02987  eV     2   --> E    G_5 D_5   
     e(  5 -  5) =      8.66194  eV     1   --> A_1  G_1 D_1   
     e(  6 -  7) =      8.99706  eV     2   --> E    G_5 D_5   
     e(  8 -  8) =      9.83608  eV     1   --> B_2  G_4 D_2'  
     e(  9 -  9) =     13.60226  eV     1   --> B_2  G_4 D_2'  
     e( 10 - 10) =     13.97829  eV     1   --> A_2  G_2 D_1'  

 **************************************************************************

 **************************************************************************

                    xk=(   0.00000,   0.13333,   0.00000  )

     Band symmetry, C_4v (4mm)  point group:

     e(  1 -  1) =     -5.68028  eV     1   --> A_1  G_1 D_1   
     e(  2 -  2) =      5.73380  eV     1   --> B_2  G_4 D_2'  
     e(  3 -  4) =      5.91116  eV     2   --> E    G_5 D_5   
     e(  5 -  5) =      8.58554  eV     1   --> A_1  G_1 D_1   
     e(  6 -  7) =      9.15757  eV     2   --> E    G_5 D_5   
     e(  8 -  8) =     10.01328  eV     1   --> B_2  G_4 D_2'  
     e(  9 -  9) =     13.39185  eV     1   --> B_2  G_4 D_2'  
     e( 10 - 10) =     14.01600  eV     1   --> A_2  G_2 D_1'  

 **************************************************************************

 **************************************************************************

                    xk=(   0.00000,   0.16667,   0.00000  )

     Band symmetry, C_4v (4mm)  point group:

     e(  1 -  1) =     -5.63659  eV     1   --> A_1  G_1 D_1   
     e(  2 -  2) =      5.51129  eV     1   --> B_2  G_4 D_2'  
     e(  3 -  4) =      5.77532  eV     2   --> E    G_5 D_5   
     e(  5 -  5) =      8.49342  eV     1   --> A_1  G_1 D_1   
     e(  6 -  7) =      9.34696  eV     2   --> E    G_5 D_5   
     e(  8 -  8) =     10.20611  eV     1   --> B_2  G_4 D_2'  
     e(  9 -  9) =     13.16639  eV     1   --> B_2  G_4 D_2'  
     e( 10 - 10) =     14.06446  eV     1   --> A_2  G_2 D_1'  

 **************************************************************************

 **************************************************************************

                    xk=(   0.00000,   0.20000,   0.00000  )

     Band symmetry, C_4v (4mm)  point group:

     e(  1 -  1) =     -5.58324  eV     1   --> A_1  G_1 D_1   
     e(  2 -  2) =      5.26648  eV     1   --> B_2  G_4 D_2'  
     e(  3 -  4) =      5.62862  eV     2   --> E    G_5 D_5   
     e(  5 -  5) =      8.38900  eV     1   --> A_1  G_1 D_1   
     e(  6 -  7) =      9.55889  eV     2   --> E    G_5 D_5   
     e(  8 -  8) =     10.39323  eV     1   --> B_2  G_4 D_2'  
     e(  9 -  9) =     12.95104  eV     1   --> B_2  G_4 D_2'  
     e( 10 - 10) =     14.12371  eV     1   --> A_2  G_2 D_1'  

 **************************************************************************

 **************************************************************************

                    xk=(   0.00000,   0.23333,   0.00000  )

     Band symmetry, C_4v (4mm)  point group:

     e(  1 -  1) =     -5.52026  eV     1   --> A_1  G_1 D_1   
     e(  2 -  2) =      5.00565  eV     1   --> B_2  G_4 D_2'  
     e(  3 -  4) =      5.47584  eV     2   --> E    G_5 D_5   
     e(  5 -  5) =      8.27557  eV     1   --> A_1  G_1 D_1   
     e(  6 -  7) =      9.78844  eV     2   --> E    G_5 D_5   
     e(  8 -  8) =     10.54671  eV     1   --> B_2  G_4 D_2'  
     e(  9 -  9) =     12.77670  eV     1   --> B_2  G_4 D_2'  
     e( 10 - 10) =     14.19369  eV     1   --> A_2  G_2 D_1'  

 **************************************************************************

 **************************************************************************

                    xk=(   0.00000,   0.26667,   0.00000  )

     Band symmetry, C_4v (4mm)  point group:

     e(  1 -  1) =     -5.44771  eV     1   --> A_1  G_1 D_1   
     e(  2 -  2) =      4.73331  eV     1   --> B_2  G_4 D_2'  
     e(  3 -  4) =      5.32051  eV     2   --> E    G_5 D_5   
     e(  5 -  5) =      8.15617  eV     1   --> A_1  G_1 D_1   
     e(  6 -  7) =     10.03195  eV     2   --> E    G_5 D_5   
     e(  8 -  8) =     10.63141  eV     1   --> B_2  G_4 D_2'  
     e(  9 -  9) =     12.68084  eV     1   --> B_2  G_4 D_2'  
     e( 10 - 10) =     14.27442  eV     1   --> A_2  G_2 D_1'  

 **************************************************************************

 **************************************************************************

                    xk=(   0.00000,   0.30000,   0.00000  )

     Band symmetry, C_4v (4mm)  point group:

     e(  1 -  1) =     -5.36562  eV     1   --> A_1  G_1 D_1   
     e(  2 -  2) =      4.45264  eV     1   --> B_2  G_4 D_2'  
     e(  3 -  4) =      5.16522  eV     2   --> E    G_5 D_5   
     e(  5 -  5) =      8.03346  eV     1   --> A_1  G_1 D_1   
     e(  6 -  7) =     10.28668  eV     2   --> E    G_5 D_5   
     e(  8 -  8) =     10.61798  eV     1   --> B_2  G_4 D_2'  
     e(  9 -  9) =     12.69463  eV     1   --> B_2  G_4 D_2'  
     e( 10 - 10) =     14.36588  eV     1   --> A_2  G_2 D_1'  

 **************************************************************************

 **************************************************************************

                    xk=(   0.00000,   0.33333,   0.00000  )

     Band symmetry, C_4v (4mm)  point group:

     e(  1 -  1) =     -5.27404  eV     1   --> A_1  G_1 D_1   
     e(  2 -  2) =      4.16591  eV     1   --> B_2  G_4 D_2'  
     e(  3 -  4) =      5.01189  eV     2   --> E    G_5 D_5   
     e(  5 -  5) =      7.90977  eV     1   --> A_1  G_1 D_1   
     e(  6 -  6) =     10.50583  eV     1   --> B_2  G_4 D_2'  
     e(  7 -  8) =     10.55055  eV     2   --> E    G_5 D_5   
     e(  9 -  9) =     12.81996  eV     1   --> B_2  G_4 D_2'  
     e( 10 - 10) =     14.46807  eV     1   --> A_2  G_2 D_1'  

 **************************************************************************

 **************************************************************************

                    xk=(   0.00000,   0.36667,   0.00000  )

     Band symmetry, C_4v (4mm)  point group:

     e(  1 -  1) =     -5.17304  eV     1   --> A_1  G_1 D_1   
     e(  2 -  2) =      3.87477  eV     1   --> B_2  G_4 D_2'  
     e(  3 -  4) =      4.86195  eV     2   --> E    G_5 D_5   
     e(  5 -  5) =      7.78706  eV     1   --> A_1  G_1 D_1   
     e(  6 -  6) =     10.32155  eV     1   --> B_2  G_4 D_2'  
     e(  7 -  8) =     10.82200  eV     2   --> E    G_5 D_5   
     e(  9 -  9) =     13.03120  eV     1   --> B_2  G_4 D_2'  
     e( 10 - 10) =     14.58098  eV     1   --> A_2  G_2 D_1'  

 **************************************************************************

 **************************************************************************

                    xk=(   0.00000,   0.40000,   0.00000  )

     Band symmetry, C_4v (4mm)  point group:

     e(  1 -  1) =     -5.06269  eV     1   --> A_1  G_1 D_1   
     e(  2 -  2) =      3.58043  eV     1   --> B_2  G_4 D_2'  
     e(  3 -  4) =      4.71651  eV     2   --> E    G_5 D_5   
     e(  5 -  5) =      7.66699  eV     1   --> A_1  G_1 D_1   
     e(  6 -  6) =     10.09526  eV     1   --> B_2  G_4 D_2'  
     e(  7 -  8) =     11.09980  eV     2   --> E    G_5 D_5   
     e(  9 -  9) =     13.29891  eV     1   --> B_2  G_4 D_2'  
     e( 10 - 10) =     14.70461  eV     1   --> A_2  G_2 D_1'  

 **************************************************************************

 **************************************************************************

                    xk=(   0.00000,   0.43333,   0.00000  )

     Band symmetry, C_4v (4mm)  point group:

     e(  1 -  1) =     -4.94306  eV     1   --> A_1  G_1 D_1   
     e(  2 -  2) =      3.28378  eV     1   --> B_2  G_4 D_2'  
     e(  3 -  4) =      4.57640  eV     2   --> E    G_5 D_5   
     e(  5 -  5) =      7.55096  eV     1   --> A_1  G_1 D_1   
     e(  6 -  6) =      9.84831  eV     1   --> B_2  G_4 D_2'  
     e(  7 -  8) =     11.38299  eV     2   --> E    G_5 D_5   
     e(  9 -  9) =     13.60207  eV     1   --> B_2  G_4 D_2'  
     e( 10 - 10) =     14.83891  eV     1   --> A_2  G_2 D_1'  

 **************************************************************************

 **************************************************************************

                    xk=(   0.00000,   0.46667,   0.00000  )

     Band symmetry, C_4v (4mm)  point group:

     e(  1 -  1) =     -4.81423  eV     1   --> A_1  G_1 D_1   
     e(  2 -  2) =      2.98556  eV     1   --> B_2  G_4 D_2'  
     e(  3 -  4) =      4.44229  eV     2   --> E    G_5 D_5   
     e(  5 -  5) =      7.44017  eV     1   --> A_1  G_1 D_1   
     e(  6 -  6) =      9.59385  eV     1   --> B_2  G_4 D_2'  
     e(  7 -  8) =     11.67081  eV     2   --> E    G_5 D_5   
     e(  9 -  9) =     13.92768  eV     1   --> B_2  G_4 D_2'  
     e( 10 - 10) =     14.98389  eV     1   --> A_2  G_2 D_1'  

 **************************************************************************

 **************************************************************************

                    xk=(   0.00000,   0.50000,   0.00000  )

     Band symmetry, C_4v (4mm)  point group:

     e(  1 -  1) =     -4.67630  eV     1   --> A_1  G_1 D_1   
     e(  2 -  2) =      2.68635  eV     1   --> B_2  G_4 D_2'  
     e(  3 -  4) =      4.31469  eV     2   --> E    G_5 D_5   
     e(  5 -  5) =      7.33562  eV     1   --> A_1  G_1 D_1   
     e(  6 -  6) =      9.33982  eV     1   --> B_2  G_4 D_2'  
     e(  7 -  8) =     11.96267  eV     2   --> E    G_5 D_5   
     e(  9 -  9) =     14.26772  eV     1   --> B_2  G_4 D_2'  
     e( 10 - 10) =     15.13952  eV     1   --> A_2  G_2 D_1'  

 **************************************************************************

 **************************************************************************

                    xk=(   0.00000,   0.53333,   0.00000  )

     Band symmetry, C_4v (4mm)  point group:

     e(  1 -  1) =     -4.52938  eV     1   --> A_1  G_1 D_1   
     e(  2 -  2) =      2.38665  eV     1   --> B_2  G_4 D_2'  
     e(  3 -  4) =      4.19403  eV     2   --> E    G_5 D_5   
     e(  5 -  5) =      7.23817  eV     1   --> A_1  G_1 D_1   
     e(  6 -  6) =      9.09111  eV     1   --> B_2  G_4 D_2'  
     e(  7 -  8) =     12.25810  eV     2   --> E    G_5 D_5   
     e(  9 -  9) =     14.61701  eV     1   --> B_2  G_4 D_2'  
     e( 10 - 10) =     15.30580  eV     1   --> A_2  G_2 D_1'  

 **************************************************************************

 **************************************************************************

                    xk=(   0.00000,   0.56667,   0.00000  )

     Band symmetry, C_4v (4mm)  point group:

     e(  1 -  1) =     -4.37357  eV     1   --> A_1  G_1 D_1   
     e(  2 -  2) =      2.08694  eV     1   --> B_2  G_4 D_2'  
     e(  3 -  4) =      4.08066  eV     2   --> E    G_5 D_5   
     e(  5 -  5) =      7.14856  eV     1   --> A_1  G_1 D_1   
     e(  6 -  6) =      8.85089  eV     1   --> B_2  G_4 D_2'  
     e(  7 -  8) =     12.55673  eV     2   --> E    G_5 D_5   
     e(  9 -  9) =     14.97194  eV     1   --> B_2  G_4 D_2'  
     e( 10 - 10) =     15.48269  eV     1   --> A_2  G_2 D_1'  

 **************************************************************************

 **************************************************************************

                    xk=(   0.00000,   0.60000,   0.00000  )

     Band symmetry, C_4v (4mm)  point group:

     e(  1 -  1) =     -4.20900  eV     1   --> A_1  G_1 D_1   
     e(  2 -  2) =      1.78765  eV     1   --> B_2  G_4 D_2'  
     e(  3 -  4) =      3.97486  eV     2   --> E    G_5 D_5   
     e(  5 -  5) =      7.06742  eV     1   --> A_1  G_1 D_1   
     e(  6 -  6) =      8.62122  eV     1   --> B_2  G_4 D_2'  
     e(  7 -  8) =     12.85827  eV     2   --> E    G_5 D_5   
     e(  9 -  9) =     15.32985  eV     1   --> B_2  G_4 D_2'  
     e( 10 - 10) =     15.67016  eV     1   --> A_2  G_2 D_1'  

 **************************************************************************

 **************************************************************************

                    xk=(   0.00000,   0.63333,   0.00000  )

     Band symmetry, C_4v (4mm)  point group:

     e(  1 -  1) =     -4.03580  eV     1   --> A_1  G_1 D_1   
     e(  2 -  2) =      1.48921  eV     1   --> B_2  G_4 D_2'  
     e(  3 -  4) =      3.87686  eV     2   --> E    G_5 D_5   
     e(  5 -  5) =      6.99532  eV     1   --> A_1  G_1 D_1   
     e(  6 -  6) =      8.40350  eV     1   --> B_2  G_4 D_2'  
     e(  7 -  8) =     13.16249  eV     2   --> E    G_5 D_5   
     e(  9 -  9) =     15.68864  eV     1   --> B_2  G_4 D_2'  
     e( 10 - 10) =     15.86821  eV     1   --> A_2  G_2 D_1'  

 **************************************************************************

 **************************************************************************

                    xk=(   0.00000,   0.66667,   0.00000  )

     Band symmetry, C_4v (4mm)  point group:

     e(  1 -  1) =     -3.85413  eV     1   --> A_1  G_1 D_1   
     e(  2 -  2) =      1.19206  eV     1   --> B_2  G_4 D_2'  
     e(  3 -  4) =      3.78685  eV     2   --> E    G_5 D_5   
     e(  5 -  5) =      6.93278  eV     1   --> A_1  G_1 D_1   
     e(  6 -  6) =      8.19866  eV     1   --> B_2  G_4 D_2'  
     e(  7 -  8) =     13.46920  eV     2   --> E    G_5 D_5   
     e(  9 -  9) =     16.04655  eV     1   --> B_2  G_4 D_2'  
     e( 10 - 10) =     16.07681  eV     1   --> A_2  G_2 D_1'  

 **************************************************************************

 **************************************************************************

                    xk=(   0.00000,   0.70000,   0.00000  )

     Band symmetry, C_4v (4mm)  point group:

     e(  1 -  1) =     -3.66414  eV     1   --> A_1  G_1 D_1   
     e(  2 -  2) =      0.89662  eV     1   --> B_2  G_4 D_2'  
     e(  3 -  4) =      3.70501  eV     2   --> E    G_5 D_5   
     e(  5 -  5) =      6.88023  eV     1   --> A_1  G_1 D_1   
     e(  6 -  6) =      8.00732  eV     1   --> B_2  G_4 D_2'  
     e(  7 -  8) =     13.77822  eV     2   --> E    G_5 D_5   
     e(  9 -  9) =     16.29592  eV     1   --> A_2  G_2 D_1'  
     e( 10 - 10) =     16.40208  eV     1   --> B_2  G_4 D_2'  

 **************************************************************************

 **************************************************************************

                    xk=(   0.00000,   0.73333,   0.00000  )

     Band symmetry, C_4v (4mm)  point group:

     e(  1 -  1) =     -3.46601  eV     1   --> A_1  G_1 D_1   
     e(  2 -  2) =      0.60333  eV     1   --> B_2  G_4 D_2'  
     e(  3 -  4) =      3.63147  eV     2   --> E    G_5 D_5   
     e(  5 -  5) =      6.83807  eV     1   --> A_1  G_1 D_1   
     e(  6 -  6) =      7.82987  eV     1   --> B_2  G_4 D_2'  
     e(  7 -  8) =     14.08935  eV     2   --> E    G_5 D_5   
     e(  9 -  9) =     16.52551  eV     1   --> A_2  G_2 D_1'  
     e( 10 - 10) =     16.75385  eV     1   --> B_2  G_4 D_2'  

 **************************************************************************

 **************************************************************************

                    xk=(   0.00000,   0.76667,   0.00000  )

     Band symmetry, C_4v (4mm)  point group:

     e(  1 -  1) =     -3.25993  eV     1   --> A_1  G_1 D_1   
     e(  2 -  2) =      0.31263  eV     1   --> B_2  G_4 D_2'  
     e(  3 -  4) =      3.56634  eV     2   --> E    G_5 D_5   
     e(  5 -  5) =      6.80670  eV     1   --> A_1  G_1 D_1   
     e(  6 -  6) =      7.66652  eV     1   --> B_2  G_4 D_2'  
     e(  7 -  8) =     14.40226  eV     2   --> E    G_5 D_5   
     e(  9 -  9) =     16.76555  eV     1   --> A_2  G_2 D_1'  
     e( 10 - 10) =     17.10059  eV     1   --> B_2  G_4 D_2'  

 **************************************************************************

 **************************************************************************

                    xk=(   0.00000,   0.80000,   0.00000  )

     Band symmetry, C_4v (4mm)  point group:

     e(  1 -  1) =     -3.04611  eV     1   --> A_1  G_1 D_1   
     e(  2 -  2) =      0.02494  eV     1   --> B_2  G_4 D_2'  
     e(  3 -  4) =      3.50972  eV     2   --> E    G_5 D_5   
     e(  5 -  5) =      6.78645  eV     1   --> A_1  G_1 D_1   
     e(  6 -  6) =      7.51735  eV     1   --> B_2  G_4 D_2'  
     e(  7 -  8) =     14.71648  eV     2   --> E    G_5 D_5   
     e(  9 -  9) =     17.01598  eV     1   --> A_2  G_2 D_1'  
     e( 10 - 10) =     17.44103  eV     1   --> B_2  G_4 D_2'  

 **************************************************************************

 **************************************************************************

                    xk=(   0.00000,   0.83333,   0.00000  )

     Band symmetry, C_4v (4mm)  point group:

     e(  1 -  1) =     -2.82476  eV     1   --> A_1  G_1 D_1   
     e(  2 -  2) =     -0.25929  eV     1   --> B_2  G_4 D_2'  
     e(  3 -  4) =      3.46169  eV     2   --> E    G_5 D_5   
     e(  5 -  5) =      6.77766  eV     1   --> A_1  G_1 D_1   
     e(  6 -  6) =      7.38238  eV     1   --> B_2  G_4 D_2'  
     e(  7 -  8) =     15.03111  eV     2   --> E    G_5 D_5   
     e(  9 -  9) =     17.27678  eV     1   --> A_2  G_2 D_1'  
     e( 10 - 10) =     17.77385  eV     1   --> B_2  G_4 D_2'  

 **************************************************************************

 **************************************************************************

                    xk=(   0.00000,   0.86667,   0.00000  )

     Band symmetry, C_4v (4mm)  point group:

     e(  1 -  1) =     -2.59612  eV     1   --> A_1  G_1 D_1   
     e(  2 -  2) =     -0.53964  eV     1   --> B_2  G_4 D_2'  
     e(  3 -  4) =      3.42231  eV     2   --> E    G_5 D_5   
     e(  5 -  5) =      6.78064  eV     1   --> A_1  G_1 D_1   
     e(  6 -  6) =      7.26152  eV     1   --> B_2  G_4 D_2'  
     e(  7 -  8) =     15.34440  eV     2   --> E    G_5 D_5   
     e(  9 -  9) =     17.54790  eV     1   --> A_2  G_2 D_1'  
     e( 10 - 10) =     18.09759  eV     1   --> B_2  G_4 D_2'  

 **************************************************************************

 **************************************************************************

                    xk=(   0.00000,   0.90000,   0.00000  )

     Band symmetry, C_4v (4mm)  point group:

     e(  1 -  1) =     -2.36046  eV     1   --> A_1  G_1 D_1   
     e(  2 -  2) =     -0.81570  eV     1   --> B_2  G_4 D_2'  
     e(  3 -  4) =      3.39163  eV     2   --> E    G_5 D_5   
     e(  5 -  5) =      6.79569  eV     1   --> A_1  G_1 D_1   
     e(  6 -  6) =      7.15464  eV     1   --> B_2  G_4 D_2'  
     e(  7 -  8) =     15.65252  eV     2   --> E    G_5 D_5   
     e(  9 -  9) =     17.82926  eV     1   --> A_2  G_2 D_1'  
     e( 10 - 10) =     17.85351  eV     1   -->   ?

 **************************************************************************

 **************************************************************************

                    xk=(   0.00000,   0.93333,   0.00000  )

     Band symmetry, C_4v (4mm)  point group:

     e(  1 -  1) =     -2.11805  eV     1   --> A_1  G_1 D_1   
     e(  2 -  2) =     -1.08706  eV     1   --> B_2  G_4 D_2'  
     e(  3 -  4) =      3.36969  eV     2   --> E    G_5 D_5   
     e(  5 -  5) =      6.82308  eV     1   --> A_1  G_1 D_1   
     e(  6 -  6) =      7.06156  eV     1   --> B_2  G_4 D_2'  
     e(  7 -  8) =     15.94580  eV     2   --> E    G_5 D_5   
     e(  9 - 10) =     17.55447  eV     2   --> E    G_5 D_5   

 **************************************************************************

 **************************************************************************

                    xk=(   0.00000,   0.96667,   0.00000  )

     Band symmetry, C_4v (4mm)  point group:

     e(  1 -  1) =     -1.86918  eV     1   --> A_1  G_1 D_1   
     e(  2 -  2) =     -1.35334  eV     1   --> B_2  G_4 D_2'  
     e(  3 -  4) =      3.35651  eV     2   --> E    G_5 D_5   
     e(  5 -  5) =      6.86311  eV     1   --> A_1  G_1 D_1   
     e(  6 -  6) =      6.98210  eV     1   --> B_2  G_4 D_2'  
     e(  7 -  8) =     16.19475  eV     2   --> E    G_5 D_5   
     e(  9 - 10) =     17.30136  eV     2   --> E    G_5 D_5   

 **************************************************************************

 **************************************************************************

                    xk=(   0.00000,   1.00000,   0.00000  )

     zone border point and non-symmorphic group 
     symmetry decomposition not available

 **************************************************************************

 **************************************************************************

                    xk=(   0.00000,   1.00000,   0.01667  )

     zone border point and non-symmorphic group 
     symmetry decomposition not available

 **************************************************************************

 **************************************************************************

                    xk=(  -0.00000,   1.00000,   0.03333  )

     zone border point and non-symmorphic group 
     symmetry decomposition not available

 **************************************************************************

 **************************************************************************

                    xk=(   0.00000,   1.00000,   0.05000  )

     zone border point and non-symmorphic group 
     symmetry decomposition not available

 **************************************************************************

 **************************************************************************

                    xk=(   0.00000,   1.00000,   0.06667  )

     zone border point and non-symmorphic group 
     symmetry decomposition not available

 **************************************************************************

 **************************************************************************

                    xk=(   0.00000,   1.00000,   0.08333  )

     zone border point and non-symmorphic group 
     symmetry decomposition not available

 **************************************************************************

 **************************************************************************

                    xk=(   0.00000,   1.00000,   0.10000  )

     zone border point and non-symmorphic group 
     symmetry decomposition not available

 **************************************************************************

 **************************************************************************

                    xk=(   0.00000,   1.00000,   0.11667  )

     zone border point and non-symmorphic group 
     symmetry decomposition not available

 **************************************************************************

 **************************************************************************

                    xk=(   0.00000,   1.00000,   0.13333  )

     zone border point and non-symmorphic group 
     symmetry decomposition not available

 **************************************************************************

 **************************************************************************

                    xk=(   0.00000,   1.00000,   0.15000  )

     zone border point and non-symmorphic group 
     symmetry decomposition not available

 **************************************************************************

 **************************************************************************

                    xk=(   0.00000,   1.00000,   0.16667  )

     zone border point and non-symmorphic group 
     symmetry decomposition not available

 **************************************************************************

 **************************************************************************

                    xk=(   0.00000,   1.00000,   0.18333  )

     zone border point and non-symmorphic group 
     symmetry decomposition not available

 **************************************************************************

 **************************************************************************

                    xk=(   0.00000,   1.00000,   0.20000  )

     zone border point and non-symmorphic group 
     symmetry decomposition not available

 **************************************************************************

 **************************************************************************

                    xk=(   0.00000,   1.00000,   0.21667  )

     zone border point and non-symmorphic group 
     symmetry decomposition not available

 **************************************************************************

 **************************************************************************

                    xk=(  -0.00000,   1.00000,   0.23333  )

     zone border point and non-symmorphic group 
     symmetry decomposition not available

 **************************************************************************

 **************************************************************************

                    xk=(   0.00000,   1.00000,   0.25000  )

     zone border point and non-symmorphic group 
     symmetry decomposition not available

 **************************************************************************

 **************************************************************************

                    xk=(   0.00000,   1.00000,   0.26667  )

     zone border point and non-symmorphic group 
     symmetry decomposition not available

 **************************************************************************

 **************************************************************************

                    xk=(   0.00000,   1.00000,   0.28333  )

     zone border point and non-symmorphic group 
     symmetry decomposition not available

 **************************************************************************

 **************************************************************************

                    xk=(   0.00000,   1.00000,   0.30000  )

     zone border point and non-symmorphic group 
     symmetry decomposition not available

 **************************************************************************

 **************************************************************************

                    xk=(   0.00000,   1.00000,   0.31667  )

     zone border point and non-symmorphic group 
     symmetry decomposition not available

 **************************************************************************

 **************************************************************************

                    xk=(   0.00000,   1.00000,   0.33333  )

     zone border point and non-symmorphic group 
     symmetry decomposition not available

 **************************************************************************

 **************************************************************************

                    xk=(   0.00000,   1.00000,   0.35000  )

     zone border point and non-symmorphic group 
     symmetry decomposition not available

 **************************************************************************

 **************************************************************************

                    xk=(   0.00000,   1.00000,   0.36667  )

     zone border point and non-symmorphic group 
     symmetry decomposition not available

 **************************************************************************

 **************************************************************************

                    xk=(   0.00000,   1.00000,   0.38333  )

     zone border point and non-symmorphic group 
     symmetry decomposition not available

 **************************************************************************

 **************************************************************************

                    xk=(   0.00000,   1.00000,   0.40000  )

     zone border point and non-symmorphic group 
     symmetry decomposition not available

 **************************************************************************

 **************************************************************************

                    xk=(   0.00000,   1.00000,   0.41667  )

     zone border point and non-symmorphic group 
     symmetry decomposition not available

 **************************************************************************

 **************************************************************************

                    xk=(   0.00000,   1.00000,   0.43333  )

     zone border point and non-symmorphic group 
     symmetry decomposition not available

 **************************************************************************

 **************************************************************************

                    xk=(   0.00000,   1.00000,   0.45000  )

     zone border point and non-symmorphic group 
     symmetry decomposition not available

 **************************************************************************

 **************************************************************************

                    xk=(   0.00000,   1.00000,   0.46667  )

     zone border point and non-symmorphic group 
     symmetry decomposition not available

 **************************************************************************

 **************************************************************************

                    xk=(  -0.00000,   1.00000,   0.48333  )

     zone border point and non-symmorphic group 
     symmetry decomposition not available

 **************************************************************************

 **************************************************************************

                    xk=(   0.00000,   1.00000,   0.50000  )

     zone border point and non-symmorphic group 
     symmetry decomposition not available

 **************************************************************************

 **************************************************************************

                    xk=(   0.00033,   0.99133,   0.50800  )

     point group C_1 (1)    
     there are  1 classes
     the character table:

       E    
A      1.00

     the symmetry operations in each class and the name of the first element:

     E        1
                                                                 

     Band symmetry, C_1 (1)     point group:

     e(  1 -  1) =     -1.48958  eV     1   --> A              
     e(  2 -  2) =     -1.41150  eV     1   --> A              
     e(  3 -  3) =      2.32231  eV     1   --> A              
     e(  4 -  4) =      2.38369  eV     1   --> A              
     e(  5 -  5) =     10.42388  eV     1   --> A              
     e(  6 -  6) =     10.50441  eV     1   --> A              
     e(  7 -  7) =     11.19987  eV     1   --> A              
     e(  8 -  8) =     11.24558  eV     1   --> A              
     e(  9 -  9) =     16.70831  eV     1   --> A              
     e( 10 - 10) =     16.85232  eV     1   --> A              

 **************************************************************************

 **************************************************************************

                    xk=(   0.00067,   0.98267,   0.51600  )

     Band symmetry, C_1 (1)     point group:

     e(  1 -  1) =     -1.52757  eV     1   --> A              
     e(  2 -  2) =     -1.37475  eV     1   --> A              
     e(  3 -  3) =      2.29353  eV     1   --> A              
     e(  4 -  4) =      2.41899  eV     1   --> A              
     e(  5 -  5) =     10.32933  eV     1   --> A              
     e(  6 -  6) =     10.52430  eV     1   --> A              
     e(  7 -  7) =     11.23543  eV     1   --> A              
     e(  8 -  8) =     11.29211  eV     1   --> A              
     e(  9 -  9) =     16.63064  eV     1   --> A              
     e( 10 - 10) =     16.91400  eV     1   --> A              

 **************************************************************************

 **************************************************************************

                    xk=(   0.00100,   0.97400,   0.52400  )

     Band symmetry, C_1 (1)     point group:

     e(  1 -  1) =     -1.56432  eV     1   --> A              
     e(  2 -  2) =     -1.34010  eV     1   --> A              
     e(  3 -  3) =      2.26561  eV     1   --> A              
     e(  4 -  4) =      2.45773  eV     1   --> A              
     e(  5 -  5) =     10.20948  eV     1   --> A              
     e(  6 -  6) =     10.53834  eV     1   --> A              
     e(  7 -  7) =     11.29896  eV     1   --> A              
     e(  8 -  8) =     11.34682  eV     1   --> A              
     e(  9 -  9) =     16.55018  eV     1   --> A              
     e( 10 - 10) =     16.96599  eV     1   --> A              

 **************************************************************************

 **************************************************************************

                    xk=(   0.00133,   0.96533,   0.53200  )

     Band symmetry, C_1 (1)     point group:

     e(  1 -  1) =     -1.59980  eV     1   --> A              
     e(  2 -  2) =     -1.30751  eV     1   --> A              
     e(  3 -  3) =      2.23854  eV     1   --> A              
     e(  4 -  4) =      2.49983  eV     1   --> A              
     e(  5 -  5) =     10.07593  eV     1   --> A              
     e(  6 -  6) =     10.54742  eV     1   --> A              
     e(  7 -  7) =     11.37787  eV     1   --> A              
     e(  8 -  8) =     11.40987  eV     1   --> A              
     e(  9 -  9) =     16.46720  eV     1   --> A              
     e( 10 - 10) =     17.00619  eV     1   --> A              

 **************************************************************************

 **************************************************************************

                    xk=(   0.00167,   0.95667,   0.54000  )

     Band symmetry, C_1 (1)     point group:

     e(  1 -  1) =     -1.63404  eV     1   --> A              
     e(  2 -  2) =     -1.27698  eV     1   --> A              
     e(  3 -  3) =      2.21235  eV     1   --> A              
     e(  4 -  4) =      2.54515  eV     1   --> A              
     e(  5 -  5) =      9.93539  eV     1   --> A              
     e(  6 -  6) =     10.55252  eV     1   --> A              
     e(  7 -  7) =     11.46045  eV     1   --> A              
     e(  8 -  8) =     11.48533  eV     1   --> A              
     e(  9 -  9) =     16.38197  eV     1   --> A              
     e( 10 - 10) =     17.03247  eV     1   --> A              

 **************************************************************************

 **************************************************************************

                    xk=(   0.00200,   0.94800,   0.54800  )

     Band symmetry, C_1 (1)     point group:

     e(  1 -  1) =     -1.66701  eV     1   --> A              
     e(  2 -  2) =     -1.24845  eV     1   --> A              
     e(  3 -  3) =      2.18705  eV     1   --> A              
     e(  4 -  4) =      2.59356  eV     1   --> A              
     e(  5 -  5) =      9.79158  eV     1   --> A              
     e(  6 -  6) =     10.55453  eV     1   --> A              
     e(  7 -  7) =     11.53774  eV     1   --> A              
     e(  8 -  8) =     11.57762  eV     1   --> A              
     e(  9 -  9) =     16.29469  eV     1   --> A              
     e( 10 - 10) =     17.04292  eV     1   --> A              

 **************************************************************************

 **************************************************************************

                    xk=(   0.00233,   0.93933,   0.55600  )

     Band symmetry, C_1 (1)     point group:

     e(  1 -  1) =     -1.69872  eV     1   --> A              
     e(  2 -  2) =     -1.22188  eV     1   --> A              
     e(  3 -  3) =      2.16265  eV     1   --> A              
     e(  4 -  4) =      2.64490  eV     1   --> A              
     e(  5 -  5) =      9.64664  eV     1   --> A              
     e(  6 -  6) =     10.55422  eV     1   --> A              
     e(  7 -  7) =     11.61487  eV     1   --> A              
     e(  8 -  8) =     11.67881  eV     1   --> A              
     e(  9 -  9) =     16.20554  eV     1   --> A              
     e( 10 - 10) =     17.03622  eV     1   --> A              

 **************************************************************************

 **************************************************************************

                    xk=(   0.00267,   0.93067,   0.56400  )

     Band symmetry, C_1 (1)     point group:

     e(  1 -  1) =     -1.72917  eV     1   --> A              
     e(  2 -  2) =     -1.19721  eV     1   --> A              
     e(  3 -  3) =      2.13917  eV     1   --> A              
     e(  4 -  4) =      2.69897  eV     1   --> A              
     e(  5 -  5) =      9.50186  eV     1   --> A              
     e(  6 -  6) =     10.55223  eV     1   --> A              
     e(  7 -  7) =     11.69438  eV     1   --> A              
     e(  8 -  8) =     11.78449  eV     1   --> A              
     e(  9 -  9) =     16.11468  eV     1   --> A              
     e( 10 - 10) =     17.01191  eV     1   --> A              

 **************************************************************************

 **************************************************************************

                    xk=(   0.00300,   0.92200,   0.57200  )

     Band symmetry, C_1 (1)     point group:

     e(  1 -  1) =     -1.75835  eV     1   --> A              
     e(  2 -  2) =     -1.17437  eV     1   --> A              
     e(  3 -  3) =      2.11662  eV     1   --> A              
     e(  4 -  4) =      2.75557  eV     1   --> A              
     e(  5 -  5) =      9.35813  eV     1   --> A              
     e(  6 -  6) =     10.54908  eV     1   --> A              
     e(  7 -  7) =     11.77640  eV     1   --> A              
     e(  8 -  8) =     11.89323  eV     1   --> A              
     e(  9 -  9) =     16.02223  eV     1   --> A              
     e( 10 - 10) =     16.97046  eV     1   --> A              

 **************************************************************************

 **************************************************************************

                    xk=(   0.00333,   0.91333,   0.58000  )

     Band symmetry, C_1 (1)     point group:

     e(  1 -  1) =     -1.78626  eV     1   --> A              
     e(  2 -  2) =     -1.15327  eV     1   --> A              
     e(  3 -  3) =      2.09500  eV     1   --> A              
     e(  4 -  4) =      2.81443  eV     1   --> A              
     e(  5 -  5) =      9.21607  eV     1   --> A              
     e(  6 -  6) =     10.54516  eV     1   --> A              
     e(  7 -  7) =     11.86069  eV     1   --> A              
     e(  8 -  8) =     12.00437  eV     1   --> A              
     e(  9 -  9) =     15.92832  eV     1   --> A              
     e( 10 - 10) =     16.91317  eV     1   --> A              

 **************************************************************************

 **************************************************************************

                    xk=(   0.00367,   0.90467,   0.58800  )

     Band symmetry, C_1 (1)     point group:

     e(  1 -  1) =     -1.81291  eV     1   --> A              
     e(  2 -  2) =     -1.13384  eV     1   --> A              
     e(  3 -  3) =      2.07434  eV     1   --> A              
     e(  4 -  4) =      2.87531  eV     1   --> A              
     e(  5 -  5) =      9.07619  eV     1   --> A              
     e(  6 -  6) =     10.54080  eV     1   --> A              
     e(  7 -  7) =     11.94696  eV     1   --> A              
     e(  8 -  8) =     12.11749  eV     1   --> A              
     e(  9 -  9) =     15.83307  eV     1   --> A              
     e( 10 - 10) =     16.84182  eV     1   --> A              

 **************************************************************************

 **************************************************************************

                    xk=(   0.00400,   0.89600,   0.59600  )

     Band symmetry, C_1 (1)     point group:

     e(  1 -  1) =     -1.83829  eV     1   --> A              
     e(  2 -  2) =     -1.11599  eV     1   --> A              
     e(  3 -  3) =      2.05464  eV     1   --> A              
     e(  4 -  4) =      2.93790  eV     1   --> A              
     e(  5 -  5) =      8.93892  eV     1   --> A              
     e(  6 -  6) =     10.53625  eV     1   --> A              
     e(  7 -  7) =     12.03493  eV     1   --> A              
     e(  8 -  8) =     12.23234  eV     1   --> A              
     e(  9 -  9) =     15.73657  eV     1   --> A              
     e( 10 - 10) =     16.75839  eV     1   --> A              

 **************************************************************************

 **************************************************************************

                    xk=(   0.00433,   0.88733,   0.60400  )

     Band symmetry, C_1 (1)     point group:

     e(  1 -  1) =     -1.86240  eV     1   --> A              
     e(  2 -  2) =     -1.09963  eV     1   --> A              
     e(  3 -  3) =      2.03590  eV     1   --> A              
     e(  4 -  4) =      3.00187  eV     1   --> A              
     e(  5 -  5) =      8.80465  eV     1   --> A              
     e(  6 -  6) =     10.53171  eV     1   --> A              
     e(  7 -  7) =     12.12439  eV     1   --> A              
     e(  8 -  8) =     12.34871  eV     1   --> A              
     e(  9 -  9) =     15.63892  eV     1   --> A              
     e( 10 - 10) =     16.66484  eV     1   --> A              

 **************************************************************************

 **************************************************************************

                    xk=(   0.00467,   0.87867,   0.61200  )

     Band symmetry, C_1 (1)     point group:

     e(  1 -  1) =     -1.88523  eV     1   --> A              
     e(  2 -  2) =     -1.08467  eV     1   --> A              
     e(  3 -  3) =      2.01815  eV     1   --> A              
     e(  4 -  4) =      3.06688  eV     1   --> A              
     e(  5 -  5) =      8.67377  eV     1   --> A              
     e(  6 -  6) =     10.52734  eV     1   --> A              
     e(  7 -  7) =     12.21512  eV     1   --> A              
     e(  8 -  8) =     12.46645  eV     1   --> A              
     e(  9 -  9) =     15.54022  eV     1   --> A              
     e( 10 - 10) =     16.56290  eV     1   --> A              

 **************************************************************************

 **************************************************************************

                    xk=(   0.00500,   0.87000,   0.62000  )

     Band symmetry, C_1 (1)     point group:

     e(  1 -  1) =     -1.90680  eV     1   --> A              
     e(  2 -  2) =     -1.07102  eV     1   --> A              
     e(  3 -  3) =      2.00137  eV     1   --> A              
     e(  4 -  4) =      3.13253  eV     1   --> A              
     e(  5 -  5) =      8.54666  eV     1   --> A              
     e(  6 -  6) =     10.52326  eV     1   --> A              
     e(  7 -  7) =     12.30694  eV     1   --> A              
     e(  8 -  8) =     12.58546  eV     1   --> A              
     e(  9 -  9) =     15.44057  eV     1   --> A              
     e( 10 - 10) =     16.45408  eV     1   --> A              

 **************************************************************************

 **************************************************************************

                    xk=(   0.00533,   0.86133,   0.62800  )

     Band symmetry, C_1 (1)     point group:

     e(  1 -  1) =     -1.92708  eV     1   --> A              
     e(  2 -  2) =     -1.05859  eV     1   --> A              
     e(  3 -  3) =      1.98560  eV     1   --> A              
     e(  4 -  4) =      3.19839  eV     1   --> A              
     e(  5 -  5) =      8.42374  eV     1   --> A              
     e(  6 -  6) =     10.51959  eV     1   --> A              
     e(  7 -  7) =     12.39968  eV     1   --> A              
     e(  8 -  8) =     12.70562  eV     1   --> A              
     e(  9 -  9) =     15.34006  eV     1   --> A              
     e( 10 - 10) =     16.33965  eV     1   --> A              

 **************************************************************************

 **************************************************************************

                    xk=(   0.00567,   0.85267,   0.63600  )

     Band symmetry, C_1 (1)     point group:

     e(  1 -  1) =     -1.94610  eV     1   --> A              
     e(  2 -  2) =     -1.04730  eV     1   --> A              
     e(  3 -  3) =      1.97082  eV     1   --> A              
     e(  4 -  4) =      3.26401  eV     1   --> A              
     e(  5 -  5) =      8.30543  eV     1   --> A              
     e(  6 -  6) =     10.51640  eV     1   --> A              
     e(  7 -  7) =     12.49317  eV     1   --> A              
     e(  8 -  8) =     12.82685  eV     1   --> A              
     e(  9 -  9) =     15.23882  eV     1   --> A              
     e( 10 - 10) =     16.22065  eV     1   --> A              

 **************************************************************************

 **************************************************************************

                    xk=(   0.00600,   0.84400,   0.64400  )

     Band symmetry, C_1 (1)     point group:

     e(  1 -  1) =     -1.96383  eV     1   --> A              
     e(  2 -  2) =     -1.03706  eV     1   --> A              
     e(  3 -  3) =      1.95704  eV     1   --> A              
     e(  4 -  4) =      3.32885  eV     1   --> A              
     e(  5 -  5) =      8.19221  eV     1   --> A              
     e(  6 -  6) =     10.51377  eV     1   --> A              
     e(  7 -  7) =     12.58725  eV     1   --> A              
     e(  8 -  8) =     12.94906  eV     1   --> A              
     e(  9 -  9) =     15.13697  eV     1   --> A              
     e( 10 - 10) =     16.09795  eV     1   --> A              

 **************************************************************************

 **************************************************************************

                    xk=(   0.00633,   0.83533,   0.65200  )

     Band symmetry, C_1 (1)     point group:

     e(  1 -  1) =     -1.98029  eV     1   --> A              
     e(  2 -  2) =     -1.02780  eV     1   --> A              
     e(  3 -  3) =      1.94428  eV     1   --> A              
     e(  4 -  4) =      3.39239  eV     1   --> A              
     e(  5 -  5) =      8.08458  eV     1   --> A              
     e(  6 -  6) =     10.51174  eV     1   --> A              
     e(  7 -  7) =     12.68175  eV     1   --> A              
     e(  8 -  8) =     13.07217  eV     1   --> A              
     e(  9 -  9) =     15.03464  eV     1   --> A              
     e( 10 - 10) =     15.97227  eV     1   --> A              

 **************************************************************************

 **************************************************************************

                    xk=(   0.00667,   0.82667,   0.66000  )

     Band symmetry, C_1 (1)     point group:

     e(  1 -  1) =     -1.99548  eV     1   --> A              
     e(  2 -  2) =     -1.01944  eV     1   --> A              
     e(  3 -  3) =      1.93253  eV     1   --> A              
     e(  4 -  4) =      3.45400  eV     1   --> A              
     e(  5 -  5) =      7.98311  eV     1   --> A              
     e(  6 -  6) =     10.51037  eV     1   --> A              
     e(  7 -  7) =     12.77647  eV     1   --> A              
     e(  8 -  8) =     13.19609  eV     1   --> A              
     e(  9 -  9) =     14.93201  eV     1   --> A              
     e( 10 - 10) =     15.84420  eV     1   --> A              

 **************************************************************************

 **************************************************************************

                    xk=(   0.00700,   0.81800,   0.66800  )

     Band symmetry, C_1 (1)     point group:

     e(  1 -  1) =     -2.00938  eV     1   --> A              
     e(  2 -  2) =     -1.01192  eV     1   --> A              
     e(  3 -  3) =      1.92180  eV     1   --> A              
     e(  4 -  4) =      3.51305  eV     1   --> A              
     e(  5 -  5) =      7.88839  eV     1   --> A              
     e(  6 -  6) =     10.50970  eV     1   --> A              
     e(  7 -  7) =     12.87119  eV     1   --> A              
     e(  8 -  8) =     13.32070  eV     1   --> A              
     e(  9 -  9) =     14.82930  eV     1   --> A              
     e( 10 - 10) =     15.71427  eV     1   --> A              

 **************************************************************************

 **************************************************************************

                    xk=(   0.00733,   0.80933,   0.67600  )

     Band symmetry, C_1 (1)     point group:

     e(  1 -  1) =     -2.02201  eV     1   --> A              
     e(  2 -  2) =     -1.00517  eV     1   --> A              
     e(  3 -  3) =      1.91210  eV     1   --> A              
     e(  4 -  4) =      3.56885  eV     1   --> A              
     e(  5 -  5) =      7.80107  eV     1   --> A              
     e(  6 -  6) =     10.50975  eV     1   --> A              
     e(  7 -  7) =     12.96561  eV     1   --> A              
     e(  8 -  8) =     13.44589  eV     1   --> A              
     e(  9 -  9) =     14.72681  eV     1   --> A              
     e( 10 - 10) =     15.58292  eV     1   --> A              

 **************************************************************************

 **************************************************************************

                    xk=(   0.00767,   0.80067,   0.68400  )

     Band symmetry, C_1 (1)     point group:

     e(  1 -  1) =     -2.03336  eV     1   --> A              
     e(  2 -  2) =     -0.99915  eV     1   --> A              
     e(  3 -  3) =      1.90342  eV     1   --> A              
     e(  4 -  4) =      3.62067  eV     1   --> A              
     e(  5 -  5) =      7.72184  eV     1   --> A              
     e(  6 -  6) =     10.51055  eV     1   --> A              
     e(  7 -  7) =     13.05934  eV     1   --> A              
     e(  8 -  8) =     13.57145  eV     1   --> A              
     e(  9 -  9) =     14.62498  eV     1   --> A              
     e( 10 - 10) =     15.45057  eV     1   --> A              

 **************************************************************************

 **************************************************************************

                    xk=(   0.00800,   0.79200,   0.69200  )

     Band symmetry, C_1 (1)     point group:

     e(  1 -  1) =     -2.04343  eV     1   --> A              
     e(  2 -  2) =     -0.99379  eV     1   --> A              
     e(  3 -  3) =      1.89578  eV     1   --> A              
     e(  4 -  4) =      3.66778  eV     1   --> A              
     e(  5 -  5) =      7.65139  eV     1   --> A              
     e(  6 -  6) =     10.51211  eV     1   --> A              
     e(  7 -  7) =     13.15181  eV     1   --> A              
     e(  8 -  8) =     13.69711  eV     1   --> A              
     e(  9 -  9) =     14.52448  eV     1   --> A              
     e( 10 - 10) =     15.31764  eV     1   --> A              

 **************************************************************************

 **************************************************************************

                    xk=(   0.00833,   0.78333,   0.70000  )

     Band symmetry, C_1 (1)     point group:

     e(  1 -  1) =     -2.05222  eV     1   --> A              
     e(  2 -  2) =     -0.98906  eV     1   --> A              
     e(  3 -  3) =      1.88917  eV     1   --> A              
     e(  4 -  4) =      3.70943  eV     1   --> A              
     e(  5 -  5) =      7.59044  eV     1   --> A              
     e(  6 -  6) =     10.51447  eV     1   --> A              
     e(  7 -  7) =     13.24212  eV     1   --> A              
     e(  8 -  8) =     13.82229  eV     1   --> A              
     e(  9 -  9) =     14.42646  eV     1   --> A              
     e( 10 - 10) =     15.18460  eV     1   --> A              

 **************************************************************************

 **************************************************************************

                    xk=(   0.00867,   0.77467,   0.70800  )

     Band symmetry, C_1 (1)     point group:

     e(  1 -  1) =     -2.05973  eV     1   --> A              
     e(  2 -  2) =     -0.98491  eV     1   --> A              
     e(  3 -  3) =      1.88360  eV     1   --> A              
     e(  4 -  4) =      3.74490  eV     1   --> A              
     e(  5 -  5) =      7.53968  eV     1   --> A              
     e(  6 -  6) =     10.51762  eV     1   --> A              
     e(  7 -  7) =     13.32880  eV     1   --> A              
     e(  8 -  8) =     13.94560  eV     1   --> A              
     e(  9 -  9) =     14.33332  eV     1   --> A              
     e( 10 - 10) =     15.05209  eV     1   --> A              

 **************************************************************************

 **************************************************************************

                    xk=(   0.00900,   0.76600,   0.71600  )

     Band symmetry, C_1 (1)     point group:

     e(  1 -  1) =     -2.06596  eV     1   --> A              
     e(  2 -  2) =     -0.98133  eV     1   --> A              
     e(  3 -  3) =      1.87907  eV     1   --> A              
     e(  4 -  4) =      3.77353  eV     1   --> A              
     e(  5 -  5) =      7.49974  eV     1   --> A              
     e(  6 -  6) =     10.52158  eV     1   --> A              
     e(  7 -  7) =     13.40919  eV     1   --> A              
     e(  8 -  8) =     14.06126  eV     1   --> A              
     e(  9 -  9) =     14.25248  eV     1   --> A              
     e( 10 - 10) =     14.92122  eV     1   --> A              

 **************************************************************************

 **************************************************************************

                    xk=(   0.00933,   0.75733,   0.72400  )

     Band symmetry, C_1 (1)     point group:

     e(  1 -  1) =     -2.07092  eV     1   --> A              
     e(  2 -  2) =     -0.97828  eV     1   --> A              
     e(  3 -  3) =      1.87557  eV     1   --> A              
     e(  4 -  4) =      3.79475  eV     1   --> A              
     e(  5 -  5) =      7.47117  eV     1   --> A              
     e(  6 -  6) =     10.52634  eV     1   --> A              
     e(  7 -  7) =     13.47829  eV     1   --> A              
     e(  8 -  8) =     14.11947  eV     1   --> A              
     e(  9 -  9) =     14.23618  eV     1   --> A              
     e( 10 - 10) =     14.79465  eV     1   --> A              

 **************************************************************************

 **************************************************************************

                    xk=(   0.00967,   0.74867,   0.73200  )

     Band symmetry, C_1 (1)     point group:

     e(  1 -  1) =     -2.07459  eV     1   --> A              
     e(  2 -  2) =     -0.97575  eV     1   --> A              
     e(  3 -  3) =      1.87311  eV     1   --> A              
     e(  4 -  4) =      3.80814  eV     1   --> A              
     e(  5 -  5) =      7.45439  eV     1   --> A              
     e(  6 -  6) =     10.53192  eV     1   --> A              
     e(  7 -  7) =     13.52705  eV     1   --> A              
     e(  8 -  8) =     14.08409  eV     1   --> A              
     e(  9 -  9) =     14.32070  eV     1   --> A              
     e( 10 - 10) =     14.68136  eV     1   --> A              

 **************************************************************************

 **************************************************************************

                    xk=(   0.01000,   0.74000,   0.74000  )

     point group C_s (m)    
     there are  2 classes
     the character table:

       E     s    
A'     1.00  1.00
A''    1.00 -1.00

     the symmetry operations in each class and the name of the first element:

     E        1
                                                                 
     s        2
                                                                 

     Band symmetry, C_s (m)     point group:

     e(  1 -  1) =     -2.07699  eV     1   --> A'             
     e(  2 -  2) =     -0.97372  eV     1   --> A'             
     e(  3 -  3) =      1.87170  eV     1   --> A'             
     e(  4 -  4) =      3.81341  eV     1   --> A''            
     e(  5 -  5) =      7.44967  eV     1   --> A'             
     e(  6 -  6) =     10.53831  eV     1   --> A'             
     e(  7 -  7) =     13.54268  eV     1   --> A''            
     e(  8 -  8) =     14.06110  eV     1   --> A'             
     e(  9 -  9) =     14.37236  eV     1   --> A'             
     e( 10 - 10) =     14.62187  eV     1   --> A''            

 **************************************************************************

 **************************************************************************

                    xk=(   0.00967,   0.71533,   0.71533  )

     Band symmetry, C_s (m)     point group:

     e(  1 -  1) =     -2.20203  eV     1   --> A'             
     e(  2 -  2) =     -0.84864  eV     1   --> A'             
     e(  3 -  3) =      1.81444  eV     1   --> A'             
     e(  4 -  4) =      3.90126  eV     1   --> A''            
     e(  5 -  5) =      7.55149  eV     1   --> A'             
     e(  6 -  6) =     11.04160  eV     1   --> A'             
     e(  7 -  7) =     13.24417  eV     1   --> A''            
     e(  8 -  8) =     13.76739  eV     1   --> A'             
     e(  9 -  9) =     14.12380  eV     1   --> A'             
     e( 10 - 10) =     14.36326  eV     1   --> A''            

 **************************************************************************

 **************************************************************************

                    xk=(   0.00933,   0.69067,   0.69067  )

     Band symmetry, C_s (m)     point group:

     e(  1 -  1) =     -2.34360  eV     1   --> A'             
     e(  2 -  2) =     -0.71194  eV     1   --> A'             
     e(  3 -  3) =      1.78897  eV     1   --> A'             
     e(  4 -  4) =      3.99555  eV     1   --> A''            
     e(  5 -  5) =      7.66073  eV     1   --> A'             
     e(  6 -  6) =     11.54467  eV     1   --> A'             
     e(  7 -  7) =     12.95275  eV     1   --> A''            
     e(  8 -  8) =     13.49225  eV     1   --> A'             
     e(  9 -  9) =     13.88263  eV     1   --> A'             
     e( 10 - 10) =     14.11512  eV     1   --> A''            

 **************************************************************************

 **************************************************************************

                    xk=(   0.00900,   0.66600,   0.66600  )

     Band symmetry, C_s (m)     point group:

     e(  1 -  1) =     -2.49944  eV     1   --> A'             
     e(  2 -  2) =     -0.56379  eV     1   --> A'             
     e(  3 -  3) =      1.79400  eV     1   --> A'             
     e(  4 -  4) =      4.09581  eV     1   --> A''            
     e(  5 -  5) =      7.77678  eV     1   --> A'             
     e(  6 -  6) =     12.02188  eV     1   --> A'             
     e(  7 -  7) =     12.66909  eV     1   --> A''            
     e(  8 -  8) =     13.26030  eV     1   --> A'             
     e(  9 -  9) =     13.64966  eV     1   --> A'             
     e( 10 - 10) =     13.87848  eV     1   --> A''            

 **************************************************************************

 **************************************************************************

                    xk=(   0.00867,   0.64133,   0.64133  )

     Band symmetry, C_s (m)     point group:

     e(  1 -  1) =     -2.66681  eV     1   --> A'             
     e(  2 -  2) =     -0.40434  eV     1   --> A'             
     e(  3 -  3) =      1.82754  eV     1   --> A'             
     e(  4 -  4) =      4.20151  eV     1   --> A''            
     e(  5 -  5) =      7.89888  eV     1   --> A'             
     e(  6 -  6) =     12.36451  eV     1   --> A'             
     e(  7 -  7) =     12.39372  eV     1   --> A''            
     e(  8 -  8) =     13.17644  eV     1   --> A'             
     e(  9 -  9) =     13.42829  eV     1   --> A'             
     e( 10 - 10) =     13.65437  eV     1   --> A''            

 **************************************************************************

 **************************************************************************

                    xk=(   0.00833,   0.61667,   0.61667  )

     Band symmetry, C_s (m)     point group:

     e(  1 -  1) =     -2.84281  eV     1   --> A'             
     e(  2 -  2) =     -0.23370  eV     1   --> A'             
     e(  3 -  3) =      1.88723  eV     1   --> A'             
     e(  4 -  4) =      4.31204  eV     1   --> A''            
     e(  5 -  5) =      8.02611  eV     1   --> A'             
     e(  6 -  6) =     12.12705  eV     1   --> A''            
     e(  7 -  7) =     12.36855  eV     1   --> A'             
     e(  8 -  8) =     13.19815  eV     1   --> A'             
     e(  9 -  9) =     13.44374  eV     1   --> A''            
     e( 10 - 10) =     13.46399  eV     1   --> A'             

 **************************************************************************

 **************************************************************************

                    xk=(   0.00800,   0.59200,   0.59200  )

     Band symmetry, C_s (m)     point group:

     e(  1 -  1) =     -3.02465  eV     1   --> A'             
     e(  2 -  2) =     -0.05198  eV     1   --> A'             
     e(  3 -  3) =      1.97063  eV     1   --> A'             
     e(  4 -  4) =      4.42672  eV     1   --> A''            
     e(  5 -  5) =      8.15734  eV     1   --> A'             
     e(  6 -  6) =     11.86944  eV     1   --> A''            
     e(  7 -  7) =     12.18340  eV     1   --> A'             
     e(  8 -  8) =     12.99897  eV     1   --> A'             
     e(  9 -  9) =     13.24755  eV     1   --> A''            
     e( 10 - 10) =     13.93198  eV     1   --> A'             

 **************************************************************************

 **************************************************************************

                    xk=(   0.00767,   0.56733,   0.56733  )

     Band symmetry, C_s (m)     point group:

     e(  1 -  1) =     -3.20975  eV     1   --> A'             
     e(  2 -  2) =      0.14069  eV     1   --> A'             
     e(  3 -  3) =      2.07537  eV     1   --> A'             
     e(  4 -  4) =      4.54478  eV     1   --> A''            
     e(  5 -  5) =      8.29119  eV     1   --> A'             
     e(  6 -  6) =     11.62114  eV     1   --> A''            
     e(  7 -  7) =     11.95828  eV     1   --> A'             
     e(  8 -  8) =     12.80726  eV     1   --> A'             
     e(  9 -  9) =     13.06680  eV     1   --> A''            
     e( 10 - 10) =     14.45147  eV     1   --> A'             

 **************************************************************************

 **************************************************************************

                    xk=(   0.00733,   0.54267,   0.54267  )

     Band symmetry, C_s (m)     point group:

     e(  1 -  1) =     -3.39585  eV     1   --> A'             
     e(  2 -  2) =      0.34421  eV     1   --> A'             
     e(  3 -  3) =      2.19930  eV     1   --> A'             
     e(  4 -  4) =      4.66537  eV     1   --> A''            
     e(  5 -  5) =      8.42599  eV     1   --> A'             
     e(  6 -  6) =     11.38241  eV     1   --> A''            
     e(  7 -  7) =     11.72734  eV     1   --> A'             
     e(  8 -  8) =     12.62854  eV     1   --> A'             
     e(  9 -  9) =     12.90250  eV     1   --> A''            
     e( 10 - 10) =     14.97730  eV     1   --> A'             

 **************************************************************************

 **************************************************************************

                    xk=(   0.00700,   0.51800,   0.51800  )

     Band symmetry, C_s (m)     point group:

     e(  1 -  1) =     -3.58100  eV     1   --> A'             
     e(  2 -  2) =      0.55845  eV     1   --> A'             
     e(  3 -  3) =      2.34049  eV     1   --> A'             
     e(  4 -  4) =      4.78754  eV     1   --> A''            
     e(  5 -  5) =      8.55968  eV     1   --> A'             
     e(  6 -  6) =     11.15344  eV     1   --> A''            
     e(  7 -  7) =     11.49966  eV     1   --> A'             
     e(  8 -  8) =     12.46487  eV     1   --> A'             
     e(  9 -  9) =     12.75567  eV     1   --> A''            
     e( 10 - 10) =     15.48887  eV     1   --> A'             

 **************************************************************************

 **************************************************************************

                    xk=(   0.00667,   0.49333,   0.49333  )

     Band symmetry, C_s (m)     point group:

     e(  1 -  1) =     -3.76354  eV     1   --> A'             
     e(  2 -  2) =      0.78327  eV     1   --> A'             
     e(  3 -  3) =      2.49720  eV     1   --> A'             
     e(  4 -  4) =      4.91025  eV     1   --> A''            
     e(  5 -  5) =      8.68984  eV     1   --> A'             
     e(  6 -  6) =     10.93438  eV     1   --> A''            
     e(  7 -  7) =     11.27849  eV     1   --> A'             
     e(  8 -  8) =     12.31818  eV     1   --> A'             
     e(  9 -  9) =     12.62738  eV     1   --> A''            
     e( 10 - 10) =     15.96491  eV     1   --> A'             

 **************************************************************************

 **************************************************************************

                    xk=(   0.00633,   0.46867,   0.46867  )

     Band symmetry, C_s (m)     point group:

     e(  1 -  1) =     -3.94211  eV     1   --> A'             
     e(  2 -  2) =      1.01853  eV     1   --> A'             
     e(  3 -  3) =      2.66789  eV     1   --> A'             
     e(  4 -  4) =      5.03239  eV     1   --> A''            
     e(  5 -  5) =      8.81361  eV     1   --> A'             
     e(  6 -  6) =     10.72540  eV     1   --> A''            
     e(  7 -  7) =     11.06527  eV     1   --> A'             
     e(  8 -  8) =     12.19048  eV     1   --> A'             
     e(  9 -  9) =     12.51872  eV     1   --> A''            
     e( 10 - 10) =     16.37659  eV     1   --> A'             

 **************************************************************************

 **************************************************************************

                    xk=(   0.00600,   0.44400,   0.44400  )

     Band symmetry, C_s (m)     point group:

     e(  1 -  1) =     -4.11556  eV     1   --> A'             
     e(  2 -  2) =      1.26403  eV     1   --> A'             
     e(  3 -  3) =      2.85113  eV     1   --> A'             
     e(  4 -  4) =      5.15281  eV     1   --> A''            
     e(  5 -  5) =      8.92781  eV     1   --> A'             
     e(  6 -  6) =     10.52660  eV     1   --> A''            
     e(  7 -  7) =     10.86068  eV     1   --> A'             
     e(  8 -  8) =     12.08369  eV     1   --> A'             
     e(  9 -  9) =     12.43078  eV     1   --> A''            
     e( 10 - 10) =     16.68835  eV     1   --> A'             

 **************************************************************************

 **************************************************************************

                    xk=(   0.00567,   0.41933,   0.41933  )

     Band symmetry, C_s (m)     point group:

     e(  1 -  1) =     -4.28292  eV     1   --> A'             
     e(  2 -  2) =      1.51960  eV     1   --> A'             
     e(  3 -  3) =      3.04560  eV     1   --> A'             
     e(  4 -  4) =      5.27030  eV     1   --> A''            
     e(  5 -  5) =      9.02908  eV     1   --> A'             
     e(  6 -  6) =     10.33811  eV     1   --> A''            
     e(  7 -  7) =     10.66508  eV     1   --> A'             
     e(  8 -  8) =     11.99941  eV     1   --> A'             
     e(  9 -  9) =     12.36462  eV     1   --> A''            
     e( 10 - 10) =     16.87247  eV     1   --> A'             

 **************************************************************************

 **************************************************************************

                    xk=(   0.00533,   0.39467,   0.39467  )

     Band symmetry, C_s (m)     point group:

     e(  1 -  1) =     -4.44343  eV     1   --> A'             
     e(  2 -  2) =      1.78498  eV     1   --> A'             
     e(  3 -  3) =      3.25001  eV     1   --> A'             
     e(  4 -  4) =      5.38364  eV     1   --> A''            
     e(  5 -  5) =      9.11429  eV     1   --> A'             
     e(  6 -  6) =     10.16000  eV     1   --> A''            
     e(  7 -  7) =     10.47862  eV     1   --> A'             
     e(  8 -  8) =     11.93828  eV     1   --> A'             
     e(  9 -  9) =     12.32121  eV     1   --> A''            
     e( 10 - 10) =     16.87554  eV     1   --> A'             

 **************************************************************************

 **************************************************************************

                    xk=(   0.00500,   0.37000,   0.37000  )

     Band symmetry, C_s (m)     point group:

     e(  1 -  1) =     -4.59640  eV     1   --> A'             
     e(  2 -  2) =      2.05990  eV     1   --> A'             
     e(  3 -  3) =      3.46309  eV     1   --> A'             
     e(  4 -  4) =      5.49169  eV     1   --> A''            
     e(  5 -  5) =      9.18097  eV     1   --> A'             
     e(  6 -  6) =      9.99236  eV     1   --> A''            
     e(  7 -  7) =     10.30134  eV     1   --> A'             
     e(  8 -  8) =     11.89921  eV     1   --> A'             
     e(  9 -  9) =     12.30142  eV     1   --> A''            
     e( 10 - 10) =     16.34597  eV     1   --> A'             

 **************************************************************************

 **************************************************************************

                    xk=(   0.00467,   0.34533,   0.34533  )

     Band symmetry, C_s (m)     point group:

     e(  1 -  1) =     -4.74129  eV     1   --> A'             
     e(  2 -  2) =      2.34402  eV     1   --> A'             
     e(  3 -  3) =      3.68352  eV     1   --> A'             
     e(  4 -  4) =      5.59339  eV     1   --> A''            
     e(  5 -  5) =      9.22789  eV     1   --> A'             
     e(  6 -  6) =      9.83527  eV     1   --> A''            
     e(  7 -  7) =     10.13321  eV     1   --> A'             
     e(  8 -  8) =     11.87832  eV     1   --> A'             
     e(  9 -  9) =     12.30591  eV     1   --> A''            
     e( 10 - 10) =     15.83502  eV     1   --> A'             

 **************************************************************************

 **************************************************************************

                    xk=(   0.00433,   0.32067,   0.32067  )

     Band symmetry, C_s (m)     point group:

[...]
     e(  6 -  6) =     11.13738  eV     1   --> A              
     e(  7 -  7) =     11.76382  eV     1   --> A              
     e(  8 -  8) =     12.22293  eV     1   --> A              
     e(  9 -  9) =     14.72700  eV     1   --> A              
     e( 10 - 10) =     16.01436  eV     1   --> A              

 **************************************************************************

 **************************************************************************

                    xk=(   0.00700,   0.81800,   0.51800  )

     Band symmetry, C_1 (1)     point group:

     e(  1 -  1) =     -2.28129  eV     1   --> A              
     e(  2 -  2) =     -0.69009  eV     1   --> A              
     e(  3 -  3) =      1.95710  eV     1   --> A              
     e(  4 -  4) =      3.24106  eV     1   --> A              
     e(  5 -  5) =      9.25663  eV     1   --> A              
     e(  6 -  6) =     10.88105  eV     1   --> A              
     e(  7 -  7) =     11.45175  eV     1   --> A              
     e(  8 -  8) =     12.39337  eV     1   --> A              
     e(  9 -  9) =     14.83175  eV     1   --> A              
     e( 10 - 10) =     16.19928  eV     1   --> A              

 **************************************************************************

 **************************************************************************

                    xk=(   0.00667,   0.82667,   0.49333  )

     Band symmetry, C_1 (1)     point group:

     e(  1 -  1) =     -2.28674  eV     1   --> A              
     e(  2 -  2) =     -0.67512  eV     1   --> A              
     e(  3 -  3) =      2.00206  eV     1   --> A              
     e(  4 -  4) =      3.15507  eV     1   --> A              
     e(  5 -  5) =      9.56116  eV     1   --> A              
     e(  6 -  6) =     10.60915  eV     1   --> A              
     e(  7 -  7) =     11.15170  eV     1   --> A              
     e(  8 -  8) =     12.58904  eV     1   --> A              
     e(  9 -  9) =     14.93526  eV     1   --> A              
     e( 10 - 10) =     16.37932  eV     1   --> A              

 **************************************************************************

 **************************************************************************

                    xk=(   0.00633,   0.83533,   0.46867  )

     Band symmetry, C_1 (1)     point group:

     e(  1 -  1) =     -2.28856  eV     1   --> A              
     e(  2 -  2) =     -0.66614  eV     1   --> A              
     e(  3 -  3) =      2.05350  eV     1   --> A              
     e(  4 -  4) =      3.07758  eV     1   --> A              
     e(  5 -  5) =      9.85589  eV     1   --> A              
     e(  6 -  6) =     10.33383  eV     1   --> A              
     e(  7 -  7) =     10.87884  eV     1   --> A              
     e(  8 -  8) =     12.79780  eV     1   --> A              
     e(  9 -  9) =     15.03736  eV     1   --> A              
     e( 10 - 10) =     16.55292  eV     1   --> A              

 **************************************************************************

 **************************************************************************

                    xk=(   0.00600,   0.84400,   0.44400  )

     Band symmetry, C_1 (1)     point group:

     e(  1 -  1) =     -2.28668  eV     1   --> A              
     e(  2 -  2) =     -0.66391  eV     1   --> A              
     e(  3 -  3) =      2.11112  eV     1   --> A              
     e(  4 -  4) =      3.01053  eV     1   --> A              
     e(  5 -  5) =     10.03871  eV     1   --> A              
     e(  6 -  6) =     10.09380  eV     1   --> A              
     e(  7 -  7) =     10.70031  eV     1   --> A              
     e(  8 -  8) =     13.01502  eV     1   --> A              
     e(  9 -  9) =     15.13799  eV     1   --> A              
     e( 10 - 10) =     16.71842  eV     1   --> A              

 **************************************************************************

 **************************************************************************

                    xk=(   0.00567,   0.85267,   0.41933  )

     Band symmetry, C_1 (1)     point group:

     e(  1 -  1) =     -2.28108  eV     1   --> A              
     e(  2 -  2) =     -0.66908  eV     1   --> A              
     e(  3 -  3) =      2.17462  eV     1   --> A              
     e(  4 -  4) =      2.95545  eV     1   --> A              
     e(  5 -  5) =      9.78270  eV     1   --> A              
     e(  6 -  6) =     10.03558  eV     1   --> A              
     e(  7 -  7) =     10.79812  eV     1   --> A              
     e(  8 -  8) =     13.23846  eV     1   --> A              
     e(  9 -  9) =     15.23720  eV     1   --> A              
     e( 10 - 10) =     16.87404  eV     1   --> A              

 **************************************************************************

 **************************************************************************

                    xk=(   0.00533,   0.86133,   0.39467  )

     Band symmetry, C_1 (1)     point group:

     e(  1 -  1) =     -2.27170  eV     1   --> A              
     e(  2 -  2) =     -0.68212  eV     1   --> A              
     e(  3 -  3) =      2.24363  eV     1   --> A              
     e(  4 -  4) =      2.91340  eV     1   --> A              
     e(  5 -  5) =      9.51587  eV     1   --> A              
     e(  6 -  6) =      9.81402  eV     1   --> A              
     e(  7 -  7) =     11.09028  eV     1   --> A              
     e(  8 -  8) =     13.46677  eV     1   --> A              
     e(  9 -  9) =     15.33516  eV     1   --> A              
     e( 10 - 10) =     17.01787  eV     1   --> A              

 **************************************************************************

 **************************************************************************

                    xk=(   0.00500,   0.87000,   0.37000  )

     Band symmetry, C_1 (1)     point group:

     e(  1 -  1) =     -2.25850  eV     1   --> A              
     e(  2 -  2) =     -0.70329  eV     1   --> A              
     e(  3 -  3) =      2.31771  eV     1   --> A              
     e(  4 -  4) =      2.88501  eV     1   --> A              
     e(  5 -  5) =      9.25441  eV     1   --> A              
     e(  6 -  6) =      9.55604  eV     1   --> A              
     e(  7 -  7) =     11.43437  eV     1   --> A              
     e(  8 -  8) =     13.69894  eV     1   --> A              
     e(  9 -  9) =     15.43212  eV     1   --> A              
     e( 10 - 10) =     17.14774  eV     1   --> A              

 **************************************************************************

 **************************************************************************

                    xk=(   0.00467,   0.87867,   0.34533  )

     Band symmetry, C_1 (1)     point group:

     e(  1 -  1) =     -2.24147  eV     1   --> A              
     e(  2 -  2) =     -0.73257  eV     1   --> A              
     e(  3 -  3) =      2.39636  eV     1   --> A              
     e(  4 -  4) =      2.87043  eV     1   --> A              
     e(  5 -  5) =      8.99969  eV     1   --> A              
     e(  6 -  6) =      9.29348  eV     1   --> A              
     e(  7 -  7) =     11.79777  eV     1   --> A              
     e(  8 -  8) =     13.93403  eV     1   --> A              
     e(  9 -  9) =     15.52848  eV     1   --> A              
     e( 10 - 10) =     17.26112  eV     1   --> A              

 **************************************************************************

 **************************************************************************

                    xk=(   0.00433,   0.88733,   0.32067  )

     Band symmetry, C_1 (1)     point group:

     e(  1 -  1) =     -2.22058  eV     1   --> A              
     e(  2 -  2) =     -0.76969  eV     1   --> A              
     e(  3 -  3) =      2.47897  eV     1   --> A              
     e(  4 -  4) =      2.86939  eV     1   --> A              
     e(  5 -  5) =      8.75275  eV     1   --> A              
     e(  6 -  6) =      9.03456  eV     1   --> A              
     e(  7 -  7) =     12.17192  eV     1   --> A              
     e(  8 -  8) =     14.17105  eV     1   --> A              
     e(  9 -  9) =     15.62482  eV     1   --> A              
     e( 10 - 10) =     17.35484  eV     1   --> A              

 **************************************************************************

 **************************************************************************

                    xk=(   0.00400,   0.89600,   0.29600  )

     Band symmetry, C_1 (1)     point group:

     e(  1 -  1) =     -2.19582  eV     1   --> A              
     e(  2 -  2) =     -0.81416  eV     1   --> A              
     e(  3 -  3) =      2.56484  eV     1   --> A              
     e(  4 -  4) =      2.88119  eV     1   --> A              
     e(  5 -  5) =      8.51463  eV     1   --> A              
     e(  6 -  6) =      8.78256  eV     1   --> A              
     e(  7 -  7) =     12.55330  eV     1   --> A              
     e(  8 -  8) =     14.40883  eV     1   --> A              
     e(  9 -  9) =     15.72189  eV     1   --> A              
     e( 10 - 10) =     17.42502  eV     1   --> A              

 **************************************************************************

 **************************************************************************

                    xk=(   0.00367,   0.90467,   0.27133  )

     Band symmetry, C_1 (1)     point group:

     e(  1 -  1) =     -2.16719  eV     1   --> A              
     e(  2 -  2) =     -0.86527  eV     1   --> A              
     e(  3 -  3) =      2.65312  eV     1   --> A              
     e(  4 -  4) =      2.90474  eV     1   --> A              
     e(  5 -  5) =      8.28641  eV     1   --> A              
     e(  6 -  6) =      8.53933  eV     1   --> A              
     e(  7 -  7) =     12.93984  eV     1   --> A              
     e(  8 -  8) =     14.64584  eV     1   --> A              
     e(  9 -  9) =     15.82077  eV     1   --> A              
     e( 10 - 10) =     17.46756  eV     1   --> A              

 **************************************************************************

 **************************************************************************

                    xk=(   0.00333,   0.91333,   0.24667  )

     Band symmetry, C_1 (1)     point group:

     e(  1 -  1) =     -2.13471  eV     1   --> A              
     e(  2 -  2) =     -0.92216  eV     1   --> A              
     e(  3 -  3) =      2.74281  eV     1   --> A              
     e(  4 -  4) =      2.93862  eV     1   --> A              
     e(  5 -  5) =      8.06932  eV     1   --> A              
     e(  6 -  6) =      8.30636  eV     1   --> A              
     e(  7 -  7) =     13.32988  eV     1   --> A              
     e(  8 -  8) =     14.88004  eV     1   --> A              
     e(  9 -  9) =     15.92297  eV     1   --> A              
     e( 10 - 10) =     17.47986  eV     1   --> A              

 **************************************************************************

 **************************************************************************

                    xk=(   0.00300,   0.92200,   0.22200  )

     Band symmetry, C_1 (1)     point group:

     e(  1 -  1) =     -2.09840  eV     1   --> A              
     e(  2 -  2) =     -0.98391  eV     1   --> A              
     e(  3 -  3) =      2.83271  eV     1   --> A              
     e(  4 -  4) =      2.98112  eV     1   --> A              
     e(  5 -  5) =      7.86474  eV     1   --> A              
     e(  6 -  6) =      8.08500  eV     1   --> A              
     e(  7 -  7) =     13.72176  eV     1   --> A              
     e(  8 -  8) =     15.10854  eV     1   --> A              
     e(  9 -  9) =     16.03063  eV     1   --> A              
     e( 10 - 10) =     17.46315  eV     1   --> A              

 **************************************************************************

 **************************************************************************

                    xk=(   0.00267,   0.93067,   0.19733  )

     Band symmetry, C_1 (1)     point group:

     e(  1 -  1) =     -2.05830  eV     1   --> A              
     e(  2 -  2) =     -1.04954  eV     1   --> A              
     e(  3 -  3) =      2.92140  eV     1   --> A              
     e(  4 -  4) =      3.03023  eV     1   --> A              
     e(  5 -  5) =      7.67428  eV     1   --> A              
     e(  6 -  6) =      7.87671  eV     1   --> A              
     e(  7 -  7) =     14.11350  eV     1   --> A              
     e(  8 -  8) =     15.32740  eV     1   --> A              
     e(  9 -  9) =     16.14664  eV     1   --> A              
     e( 10 - 10) =     17.42292  eV     1   --> A              

 **************************************************************************

 **************************************************************************

                    xk=(   0.00233,   0.93933,   0.17267  )

     Band symmetry, C_1 (1)     point group:

     e(  1 -  1) =     -2.01449  eV     1   --> A              
     e(  2 -  2) =     -1.11813  eV     1   --> A              
     e(  3 -  3) =      3.00720  eV     1   --> A              
     e(  4 -  4) =      3.08372  eV     1   --> A              
     e(  5 -  5) =      7.49978  eV     1   --> A              
     e(  6 -  6) =      7.68310  eV     1   --> A              
     e(  7 -  7) =     14.50244  eV     1   --> A              
     e(  8 -  8) =     15.53153  eV     1   --> A              
     e(  9 -  9) =     16.27456  eV     1   --> A              
     e( 10 - 10) =     17.36693  eV     1   --> A              

 **************************************************************************

 **************************************************************************

                    xk=(   0.00200,   0.94800,   0.14800  )

     Band symmetry, C_1 (1)     point group:

     e(  1 -  1) =     -1.96705  eV     1   --> A              
     e(  2 -  2) =     -1.18875  eV     1   --> A              
     e(  3 -  3) =      3.08820  eV     1   --> A              
     e(  4 -  4) =      3.13908  eV     1   --> A              
     e(  5 -  5) =      7.34333  eV     1   --> A              
     e(  6 -  6) =      7.50600  eV     1   --> A              
     e(  7 -  7) =     14.88469  eV     1   --> A              
     e(  8 -  8) =     15.71557  eV     1   --> A              
     e(  9 -  9) =     16.41742  eV     1   --> A              
     e( 10 - 10) =     17.30299  eV     1   --> A              

 **************************************************************************

 **************************************************************************

                    xk=(   0.00167,   0.95667,   0.12333  )

     Band symmetry, C_1 (1)     point group:

     e(  1 -  1) =     -1.91608  eV     1   --> A              
     e(  2 -  2) =     -1.26058  eV     1   --> A              
     e(  3 -  3) =      3.16223  eV     1   --> A              
     e(  4 -  4) =      3.19360  eV     1   --> A              
     e(  5 -  5) =      7.20729  eV     1   --> A              
     e(  6 -  6) =      7.34748  eV     1   --> A              
     e(  7 -  7) =     15.25399  eV     1   --> A              
     e(  8 -  8) =     15.87579  eV     1   --> A              
     e(  9 -  9) =     16.57529  eV     1   --> A              
     e( 10 - 10) =     17.23852  eV     1   --> A              

 **************************************************************************

 **************************************************************************

                    xk=(   0.00133,   0.96533,   0.09867  )

     Band symmetry, C_1 (1)     point group:

     e(  1 -  1) =     -1.86171  eV     1   --> A              
     e(  2 -  2) =     -1.33287  eV     1   --> A              
     e(  3 -  3) =      3.22699  eV     1   --> A              
     e(  4 -  4) =      3.24437  eV     1   --> A              
     e(  5 -  5) =      7.09415  eV     1   --> A              
     e(  6 -  6) =      7.20987  eV     1   --> A              
     e(  7 -  7) =     15.59977  eV     1   --> A              
     e(  8 -  8) =     16.01169  eV     1   --> A              
     e(  9 -  9) =     16.74267  eV     1   --> A              
     e( 10 - 10) =     17.18166  eV     1   --> A              

 **************************************************************************

 **************************************************************************

                    xk=(   0.00100,   0.97400,   0.07400  )

     Band symmetry, C_1 (1)     point group:

     e(  1 -  1) =     -1.80412  eV     1   --> A              
     e(  2 -  2) =     -1.40493  eV     1   --> A              
     e(  3 -  3) =      3.28017  eV     1   --> A              
     e(  4 -  4) =      3.28838  eV     1   --> A              
     e(  5 -  5) =      7.00642  eV     1   --> A              
     e(  6 -  6) =      7.09560  eV     1   --> A              
     e(  7 -  7) =     15.90361  eV     1   --> A              
     e(  8 -  8) =     16.12496  eV     1   --> A              
     e(  9 -  9) =     16.90771  eV     1   --> A              
     e( 10 - 10) =     17.14334  eV     1   --> A              

 **************************************************************************

 **************************************************************************

                    xk=(   0.00067,   0.98267,   0.04933  )

     Band symmetry, C_1 (1)     point group:

     e(  1 -  1) =     -1.74350  eV     1   --> A              
     e(  2 -  2) =     -1.47616  eV     1   --> A              
     e(  3 -  3) =      3.31967  eV     1   --> A              
     e(  4 -  4) =      3.32266  eV     1   --> A              
     e(  5 -  5) =      6.94642  eV     1   --> A              
     e(  6 -  6) =      7.00715  eV     1   --> A              
     e(  7 -  7) =     16.13659  eV     1   --> A              
     e(  8 -  8) =     16.21631  eV     1   --> A              
     e(  9 -  9) =     17.05221  eV     1   --> A              
     e( 10 - 10) =     17.13707  eV     1   --> A              

 **************************************************************************

 **************************************************************************

                    xk=(   0.00033,   0.99133,   0.02467  )

     Band symmetry, C_1 (1)     point group:

     e(  1 -  1) =     -1.68008  eV     1   --> A              
     e(  2 -  2) =     -1.54606  eV     1   --> A              
     e(  3 -  3) =      3.34395  eV     1   --> A              
     e(  4 -  4) =      3.34456  eV     1   --> A              
     e(  5 -  5) =      6.91596  eV     1   --> A              
     e(  6 -  6) =      6.94673  eV     1   --> A              
     e(  7 -  7) =     16.27076  eV     1   --> A              
     e(  8 -  8) =     16.28194  eV     1   --> A              
     e(  9 -  9) =     17.15193  eV     1   --> A              
     e( 10 - 10) =     17.16384  eV     1   --> A              

 **************************************************************************

 **************************************************************************

                    xk=(   0.00000,   1.00000,   0.00000  )

     zone border point and non-symmorphic group 
     symmetry decomposition not available

 **************************************************************************

     BANDS        :     35.65s CPU     15.28s WALL


   This run was terminated on:  14:59: 4  10Dec2024            

=------------------------------------------------------------------------------=
   JOB DONE.
=------------------------------------------------------------------------------=
