
     Program BANDS v.7.0 starts on 19Dec2024 at  7:16:30 

     This program is part of the open-source Quantum ESPRESSO suite
     for quantum simulation of materials; please cite
         "P. Giannozzi et al., J. Phys.:Condens. Matter 21 395502 (2009);
         "P. Giannozzi et al., J. Phys.:Condens. Matter 29 465901 (2017);
         "P. Giannozzi et al., J. Chem. Phys. 152 154105 (2020);
          URL http://www.quantum-espresso.org", 
     in publications or presentations arising from this work. More details at
     http://www.quantum-espresso.org/quote

     Parallel version (MPI & OpenMP), running on       2 processor cores
     Number of MPI processes:                 1
     Threads/MPI process:                     2

     MPI processes distributed on     1 nodes
     308 MiB available memory on the printing compute node when the environment starts


     Reading xml data from directory:

     ./outputs/ge.save/
     Message from routine volume:
     axis vectors are left-handed

     IMPORTANT: XC functional enforced from input :
     Exchange-correlation= PBE
                           (   1   4   3   4   0   0   0)
     Any further DFT definition will be discarded
     Please, verify this is what you really want


     G-vector sticks info
     --------------------
     sticks:   dense  smooth     PW     G-vecs:    dense   smooth      PW
     Sum         793     793    241                14553    14553    2397

     Using Slab Decomposition

     Reading collected, re-writing distributed wavefunctions
     high-symmetry point:  0.5000 0.5000 0.5000   x coordinate   0.0000
     high-symmetry point:  0.0000 0.0000 0.0000   x coordinate   0.8660
     high-symmetry point:  0.0000 1.0000 0.0000   x coordinate   1.8660
     high-symmetry point:  0.0000 0.7500 0.7500   x coordinate   2.6566
     high-symmetry point:  0.0000 0.0000 0.0000   x coordinate   3.7173

     Plottable bands (eV) written to file Ge_bands_wo_soc.dat.gnu
     Bands written to file Ge_bands_wo_soc.dat

 **************************************************************************

                    xk=(   0.50000,   0.50000,   0.50000  )

     zone border point and non-symmorphic group 
     symmetry decomposition not available

 **************************************************************************

 **************************************************************************

                    xk=(   0.47500,   0.47500,   0.47500  )

     point group C_3v (3m)  
     there are  3 classes
     the character table:

       E     2C3   3s_v 
A_1    1.00  1.00  1.00
A_2    1.00  1.00 -1.00
E      2.00 -1.00  0.00

     the symmetry operations in each class and the name of the first element:

     E        1
                                                                 
     2C3      2    3
                                                                 
     3s_v     4    5    6
                                                                 

     Band symmetry, C_3v (3m)   point group:

     e(  1 -  1) =     -4.89204  eV     1   --> A_1  L_1       
     e(  2 -  2) =     -1.72767  eV     1   --> A_1  L_1       
     e(  3 -  4) =      4.43293  eV     2   --> E    L_3       
     e(  5 -  5) =      6.02621  eV     1   --> A_1  L_1       
     e(  6 -  7) =      9.54463  eV     2   --> E    L_3       
     e(  8 -  8) =     13.12294  eV     1   --> A_1  L_1       

 **************************************************************************

 **************************************************************************

                    xk=(   0.45000,   0.45000,   0.45000  )

     Band symmetry, C_3v (3m)   point group:

     e(  1 -  1) =     -4.97061  eV     1   --> A_1  L_1       
     e(  2 -  2) =     -1.60211  eV     1   --> A_1  L_1       
     e(  3 -  4) =      4.44878  eV     2   --> E    L_3       
     e(  5 -  5) =      6.04246  eV     1   --> A_1  L_1       
     e(  6 -  7) =      9.55234  eV     2   --> E    L_3       
     e(  8 -  8) =     13.14489  eV     1   --> A_1  L_1       

 **************************************************************************

 **************************************************************************

                    xk=(   0.42500,   0.42500,   0.42500  )

     Band symmetry, C_3v (3m)   point group:

     e(  1 -  1) =     -5.08888  eV     1   --> A_1  L_1       
     e(  2 -  2) =     -1.40564  eV     1   --> A_1  L_1       
     e(  3 -  4) =      4.47515  eV     2   --> E    L_3       
     e(  5 -  5) =      6.06945  eV     1   --> A_1  L_1       
     e(  6 -  7) =      9.56378  eV     2   --> E    L_3       
     e(  8 -  8) =     13.17824  eV     1   --> A_1  L_1       

 **************************************************************************

 **************************************************************************

                    xk=(   0.40000,   0.40000,   0.40000  )

     Band symmetry, C_3v (3m)   point group:

     e(  1 -  1) =     -5.23386  eV     1   --> A_1  L_1       
     e(  2 -  2) =     -1.15138  eV     1   --> A_1  L_1       
     e(  3 -  4) =      4.51194  eV     2   --> E    L_3       
     e(  5 -  5) =      6.10702  eV     1   --> A_1  L_1       
     e(  6 -  7) =      9.57680  eV     2   --> E    L_3       
     e(  8 -  8) =     13.21496  eV     1   --> A_1  L_1       

 **************************************************************************

 **************************************************************************

                    xk=(   0.37500,   0.37500,   0.37500  )

     Band symmetry, C_3v (3m)   point group:

     e(  1 -  1) =     -5.39416  eV     1   --> A_1  L_1       
     e(  2 -  2) =     -0.85094  eV     1   --> A_1  L_1       
     e(  3 -  4) =      4.55902  eV     2   --> E    L_3       
     e(  5 -  5) =      6.15493  eV     1   --> A_1  L_1       
     e(  6 -  7) =      9.58829  eV     2   --> E    L_3       
     e(  8 -  8) =     13.23105  eV     1   --> A_1  L_1       

 **************************************************************************

 **************************************************************************

                    xk=(   0.35000,   0.35000,   0.35000  )

     Band symmetry, C_3v (3m)   point group:

     e(  1 -  1) =     -5.56106  eV     1   --> A_1  L_1       
     e(  2 -  2) =     -0.51335  eV     1   --> A_1  L_1       
     e(  3 -  4) =      4.61619  eV     2   --> E    L_3       
     e(  5 -  5) =      6.21281  eV     1   --> A_1  L_1       
     e(  6 -  7) =      9.59423  eV     2   --> E    L_3       
     e(  8 -  8) =     13.14979  eV     1   --> A_1  L_1       

 **************************************************************************

 **************************************************************************

                    xk=(   0.32500,   0.32500,   0.32500  )

     Band symmetry, C_3v (3m)   point group:

     e(  1 -  1) =     -5.72825  eV     1   --> A_1  L_1       
     e(  2 -  2) =     -0.14527  eV     1   --> A_1  L_1       
     e(  3 -  4) =      4.68318  eV     2   --> E    L_3       
     e(  5 -  5) =      6.28014  eV     1   --> A_1  L_1       
     e(  6 -  7) =      9.58980  eV     2   --> E    L_3       
     e(  8 -  8) =     12.86872  eV     1   --> A_1  L_1       

 **************************************************************************

 **************************************************************************

                    xk=(   0.30000,   0.30000,   0.30000  )

     Band symmetry, C_3v (3m)   point group:

     e(  1 -  1) =     -5.89130  eV     1   --> A_1  L_1       
     e(  2 -  2) =      0.24839  eV     1   --> A_1  L_1       
     e(  3 -  4) =      4.75959  eV     2   --> E    L_3       
     e(  5 -  5) =      6.35614  eV     1   --> A_1  L_1       
     e(  6 -  7) =      9.56980  eV     2   --> E    L_3       
     e(  8 -  8) =     12.45827  eV     1   --> A_1  L_1       

 **************************************************************************

 **************************************************************************

                    xk=(   0.27500,   0.27500,   0.27500  )

     Band symmetry, C_3v (3m)   point group:

     e(  1 -  1) =     -6.04710  eV     1   --> A_1  L_1       
     e(  2 -  2) =      0.66393  eV     1   --> A_1  L_1       
     e(  3 -  4) =      4.84489  eV     2   --> E    L_3       
     e(  5 -  5) =      6.43972  eV     1   --> A_1  L_1       
     e(  6 -  7) =      9.52930  eV     2   --> E    L_3       
     e(  8 -  8) =     12.00876  eV     1   --> A_1  L_1       

 **************************************************************************

 **************************************************************************

                    xk=(   0.25000,   0.25000,   0.25000  )

     Band symmetry, C_3v (3m)   point group:

     e(  1 -  1) =     -6.19344  eV     1   --> A_1  L_1       
     e(  2 -  2) =      1.09840  eV     1   --> A_1  L_1       
     e(  3 -  4) =      4.93834  eV     2   --> E    L_3       
     e(  5 -  5) =      6.52923  eV     1   --> A_1  L_1       
     e(  6 -  7) =      9.46473  eV     2   --> E    L_3       
     e(  8 -  8) =     11.55002  eV     1   --> A_1  L_1       

 **************************************************************************

 **************************************************************************

                    xk=(   0.22500,   0.22500,   0.22500  )

     Band symmetry, C_3v (3m)   point group:

     e(  1 -  1) =     -6.32871  eV     1   --> A_1  L_1       
     e(  2 -  2) =      1.54932  eV     1   --> A_1  L_1       
     e(  3 -  4) =      5.03896  eV     2   --> E    L_3       
     e(  5 -  5) =      6.62226  eV     1   --> A_1  L_1       
     e(  6 -  7) =      9.37485  eV     2   --> E    L_3       
     e(  8 -  8) =     11.09159  eV     1   --> A_1  L_1       

 **************************************************************************

 **************************************************************************

                    xk=(   0.20000,   0.20000,   0.20000  )

     Band symmetry, C_3v (3m)   point group:

     e(  1 -  1) =     -6.45179  eV     1   --> A_1  L_1       
     e(  2 -  2) =      2.01441  eV     1   --> A_1  L_1       
     e(  3 -  4) =      5.14539  eV     2   --> E    L_3       
     e(  5 -  5) =      6.71513  eV     1   --> A_1  L_1       
     e(  6 -  7) =      9.26140  eV     2   --> E    L_3       
     e(  8 -  8) =     10.63783  eV     1   --> A_1  L_1       

 **************************************************************************

 **************************************************************************

                    xk=(   0.17500,   0.17500,   0.17500  )

     Band symmetry, C_3v (3m)   point group:

     e(  1 -  1) =     -6.56179  eV     1   --> A_1  L_1       
     e(  2 -  2) =      2.49144  eV     1   --> A_1  L_1       
     e(  3 -  4) =      5.25577  eV     2   --> E    L_3       
     e(  5 -  5) =      6.80212  eV     1   --> A_1  L_1       
     e(  6 -  7) =      9.12908  eV     2   --> E    L_3       
     e(  8 -  8) =     10.19258  eV     1   --> A_1  L_1       

 **************************************************************************

 **************************************************************************

                    xk=(   0.15000,   0.15000,   0.15000  )

     Band symmetry, C_3v (3m)   point group:

     e(  1 -  1) =     -6.65810  eV     1   --> A_1  L_1       
     e(  2 -  2) =      2.97801  eV     1   --> A_1  L_1       
     e(  3 -  4) =      5.36761  eV     2   --> E    L_3       
     e(  5 -  5) =      6.87406  eV     1   --> A_1  L_1       
     e(  6 -  7) =      8.98488  eV     2   --> E    L_3       
     e(  8 -  8) =      9.76173  eV     1   --> A_1  L_1       

 **************************************************************************

 **************************************************************************

                    xk=(   0.12500,   0.12500,   0.12500  )

     Band symmetry, C_3v (3m)   point group:

     e(  1 -  1) =     -6.74024  eV     1   --> A_1  L_1       
     e(  2 -  2) =      3.47137  eV     1   --> A_1  L_1       
     e(  3 -  4) =      5.47752  eV     2   --> E    L_3       
     e(  5 -  5) =      6.91594  eV     1   --> A_1  L_1       
     e(  6 -  7) =      8.83733  eV     2   --> E    L_3       
     e(  8 -  8) =      9.35622  eV     1   --> A_1  L_1       

 **************************************************************************

 **************************************************************************

                    xk=(   0.10000,   0.10000,   0.10000  )

     Band symmetry, C_3v (3m)   point group:

     e(  1 -  1) =     -6.80786  eV     1   --> A_1  L_1       
     e(  2 -  2) =      3.96820  eV     1   --> A_1  L_1       
     e(  3 -  4) =      5.58105  eV     2   --> E    L_3       
     e(  5 -  5) =      6.90390  eV     1   --> A_1  L_1       
     e(  6 -  7) =      8.69587  eV     2   --> E    L_3       
     e(  8 -  8) =      8.99550  eV     1   --> A_1  L_1       

 **************************************************************************

 **************************************************************************

                    xk=(   0.07500,   0.07500,   0.07500  )

     Band symmetry, C_3v (3m)   point group:

     e(  1 -  1) =     -6.86069  eV     1   --> A_1  L_1       
     e(  2 -  2) =      4.46417  eV     1   --> A_1  L_1       
     e(  3 -  4) =      5.67253  eV     2   --> E    L_3       
     e(  5 -  5) =      6.80582  eV     1   --> A_1  L_1       
     e(  6 -  7) =      8.57045  eV     2   --> E    L_3       
     e(  8 -  8) =      8.70748  eV     1   --> A_1  L_1       

 **************************************************************************

 **************************************************************************

                    xk=(   0.05000,   0.05000,   0.05000  )

     Band symmetry, C_3v (3m)   point group:

     e(  1 -  1) =     -6.89855  eV     1   --> A_1  L_1       
     e(  2 -  2) =      4.95320  eV     1   --> A_1  L_1       
     e(  3 -  4) =      5.74532  eV     2   --> E    L_3       
     e(  5 -  5) =      6.59637  eV     1   --> A_1  L_1       
     e(  6 -  7) =      8.47106  eV     2   --> E    L_3       
     e(  8 -  8) =      8.51489  eV     1   --> A_1  L_1       

 **************************************************************************

 **************************************************************************

                    xk=(   0.02500,   0.02500,   0.02500  )

     Band symmetry, C_3v (3m)   point group:

     e(  1 -  1) =     -6.92132  eV     1   --> A_1  L_1       
     e(  2 -  2) =      5.42542  eV     1   --> A_1  L_1       
     e(  3 -  4) =      5.79260  eV     2   --> E    L_3       
     e(  5 -  5) =      6.28071  eV     1   --> A_1  L_1       
     e(  6 -  7) =      8.40689  eV     2   --> E    L_3       
     e(  8 -  8) =      8.41441  eV     1   --> A_1  L_1       

 **************************************************************************

 **************************************************************************

                    xk=(   0.00000,   0.00000,   0.00000  )

     point group O_h (m-3m) 
     there are 10 classes
     the character table:

       E     8C3   3C2   6C4   6C2'  i     8S6   3s_h  6S4   6s_d 
A_1g   1.00  1.00  1.00  1.00  1.00  1.00  1.00  1.00  1.00  1.00
A_2g   1.00  1.00  1.00 -1.00 -1.00  1.00  1.00  1.00 -1.00 -1.00
E_g    2.00 -1.00  2.00  0.00  0.00  2.00 -1.00  2.00  0.00  0.00
T_1g   3.00  0.00 -1.00  1.00 -1.00  3.00  0.00 -1.00  1.00 -1.00
T_2g   3.00  0.00 -1.00 -1.00  1.00  3.00  0.00 -1.00 -1.00  1.00
A_1u   1.00  1.00  1.00  1.00  1.00 -1.00 -1.00 -1.00 -1.00 -1.00
A_2u   1.00  1.00  1.00 -1.00 -1.00 -1.00 -1.00 -1.00  1.00  1.00
E_u    2.00 -1.00  2.00  0.00  0.00 -2.00  1.00 -2.00  0.00  0.00
T_1u   3.00  0.00 -1.00  1.00 -1.00 -3.00  0.00  1.00 -1.00  1.00
T_2u   3.00  0.00 -1.00 -1.00  1.00 -3.00  0.00  1.00  1.00 -1.00

     the symmetry operations in each class and the name of the first element:

     E        1
                                                                 
     8C3     17   19   20   18   24   21   22   23
                                                                 
     3C2      2    4    3
                                                                 
     6C4      7    8   15   16   12   11
                                                                 
     6C2'     5    6   14   13   10    9
                                                                 
     i       25
                                                                 
     8S6     41   43   44   42   48   45   46   47
                                                                 
     3s_h    26   28   27
                                                                 
     6S4     31   32   39   40   36   35
                                                                 
     6s_d    29   30   38   37   34   33
                                                                 

     Band symmetry, O_h (m-3m)  point group:

     e(  1 -  1) =     -6.92892  eV     1   --> A_1g G_1   G_1+
     e(  2 -  4) =      5.80905  eV     3   --> T_2g G_25' G_5+
     e(  5 -  5) =      5.94623  eV     1   --> A_2u G_2'  G_2-
     e(  6 -  8) =      8.38465  eV     3   --> T_1u G_15  G_4-

 **************************************************************************

 **************************************************************************

                    xk=(   0.00000,   0.05000,   0.00000  )

     point group C_4v (4mm) 
     there are  5 classes
     the character table:

       E     2C4   C2    2s_v  2s_d 
A_1    1.00  1.00  1.00  1.00  1.00
A_2    1.00  1.00  1.00 -1.00 -1.00
B_1    1.00 -1.00  1.00  1.00 -1.00
B_2    1.00 -1.00  1.00 -1.00  1.00
E      2.00  0.00 -2.00  0.00  0.00

     the symmetry operations in each class and the name of the first element:

     E        1
                                                                 
     2C4      3    4
                                                                 
     C2       2
                                                                 
     2s_v     5    6
                                                                 
     2s_d     7    8
                                                                 

     Band symmetry, C_4v (4mm)  point group:

     e(  1 -  1) =     -6.91878  eV     1   --> A_1  G_1 D_1   
     e(  2 -  2) =      5.38385  eV     1   --> B_2  G_4 D_2'  
     e(  3 -  4) =      5.75749  eV     2   --> E    G_5 D_5   
     e(  5 -  5) =      6.36847  eV     1   --> B_2  G_4 D_2'  
     e(  6 -  6) =      8.34999  eV     1   --> A_1  G_1 D_1   
     e(  7 -  8) =      8.44994  eV     2   --> E    G_5 D_5   

 **************************************************************************

 **************************************************************************

                    xk=(   0.00000,   0.10000,   0.00000  )

     Band symmetry, C_4v (4mm)  point group:

     e(  1 -  1) =     -6.88840  eV     1   --> A_1  G_1 D_1   
     e(  2 -  2) =      4.89700  eV     1   --> B_2  G_4 D_2'  
     e(  3 -  4) =      5.61684  eV     2   --> E    G_5 D_5   
     e(  5 -  5) =      6.84487  eV     1   --> B_2  G_4 D_2'  
     e(  6 -  6) =      8.25202  eV     1   --> A_1  G_1 D_1   
     e(  7 -  8) =      8.63167  eV     2   --> E    G_5 D_5   

 **************************************************************************

 **************************************************************************

                    xk=(   0.00000,   0.15000,   0.00000  )

     Band symmetry, C_4v (4mm)  point group:

     e(  1 -  1) =     -6.83782  eV     1   --> A_1  G_1 D_1   
     e(  2 -  2) =      4.41009  eV     1   --> B_2  G_4 D_2'  
     e(  3 -  4) =      5.41668  eV     2   --> E    G_5 D_5   
     e(  5 -  5) =      7.30889  eV     1   --> B_2  G_4 D_2'  
     e(  6 -  6) =      8.10548  eV     1   --> A_1  G_1 D_1   
     e(  7 -  8) =      8.90000  eV     2   --> E    G_5 D_5   

 **************************************************************************

 **************************************************************************

                    xk=(   0.00000,   0.20000,   0.00000  )

     Band symmetry, C_4v (4mm)  point group:

     e(  1 -  1) =     -6.76708  eV     1   --> A_1  G_1 D_1   
     e(  2 -  2) =      3.92547  eV     1   --> B_2  G_4 D_2'  
     e(  3 -  4) =      5.18406  eV     2   --> E    G_5 D_5   
     e(  5 -  5) =      7.74869  eV     1   --> B_2  G_4 D_2'  
     e(  6 -  6) =      7.92751  eV     1   --> A_1  G_1 D_1   
     e(  7 -  8) =      9.22744  eV     2   --> E    G_5 D_5   

 **************************************************************************

 **************************************************************************

                    xk=(   0.00000,   0.25000,   0.00000  )

     Band symmetry, C_4v (4mm)  point group:

     e(  1 -  1) =     -6.67629  eV     1   --> A_1  G_1 D_1   
     e(  2 -  2) =      3.44410  eV     1   --> B_2  G_4 D_2'  
     e(  3 -  4) =      4.93760  eV     2   --> E    G_5 D_5   
     e(  5 -  5) =      7.73314  eV     1   --> A_1  G_1 D_1   
     e(  6 -  6) =      8.14700  eV     1   --> B_2  G_4 D_2'  
     e(  7 -  8) =      9.59484  eV     2   --> E    G_5 D_5   

 **************************************************************************

 **************************************************************************

                    xk=(   0.00000,   0.30000,   0.00000  )

     Band symmetry, C_4v (4mm)  point group:

     e(  1 -  1) =     -6.56555  eV     1   --> A_1  G_1 D_1   
     e(  2 -  2) =      2.96656  eV     1   --> B_2  G_4 D_2'  
     e(  3 -  4) =      4.68898  eV     2   --> E    G_5 D_5   
     e(  5 -  5) =      7.53396  eV     1   --> A_1  G_1 D_1   
     e(  6 -  6) =      8.47770  eV     1   --> B_2  G_4 D_2'  
     e(  7 -  8) =      9.98981  eV     2   --> E    G_5 D_5   

 **************************************************************************

 **************************************************************************

                    xk=(   0.00000,   0.35000,   0.00000  )

     Band symmetry, C_4v (4mm)  point group:

     e(  1 -  1) =     -6.43501  eV     1   --> A_1  G_1 D_1   
     e(  2 -  2) =      2.49322  eV     1   --> B_2  G_4 D_2'  
     e(  3 -  4) =      4.44551  eV     2   --> E    G_5 D_5   
     e(  5 -  5) =      7.33835  eV     1   --> A_1  G_1 D_1   
     e(  6 -  6) =      8.70608  eV     1   --> B_2  G_4 D_2'  
     e(  7 -  8) =     10.40434  eV     2   --> E    G_5 D_5   

 **************************************************************************

 **************************************************************************

                    xk=(   0.00000,   0.40000,   0.00000  )

     Band symmetry, C_4v (4mm)  point group:

     e(  1 -  1) =     -6.28484  eV     1   --> A_1  G_1 D_1   
     e(  2 -  2) =      2.02440  eV     1   --> B_2  G_4 D_2'  
     e(  3 -  4) =      4.21186  eV     2   --> E    G_5 D_5   
     e(  5 -  5) =      7.15227  eV     1   --> A_1  G_1 D_1   
     e(  6 -  6) =      8.80067  eV     1   --> B_2  G_4 D_2'  
     e(  7 -  8) =     10.83294  eV     2   --> E    G_5 D_5   

 **************************************************************************

 **************************************************************************

                    xk=(   0.00000,   0.45000,   0.00000  )

     Band symmetry, C_4v (4mm)  point group:

     e(  1 -  1) =     -6.11525  eV     1   --> A_1  G_1 D_1   
     e(  2 -  2) =      1.56039  eV     1   --> B_2  G_4 D_2'  
     e(  3 -  4) =      3.99114  eV     2   --> E    G_5 D_5   
     e(  5 -  5) =      6.97998  eV     1   --> A_1  G_1 D_1   
     e(  6 -  6) =      8.75624  eV     1   --> B_2  G_4 D_2'  
     e(  7 -  8) =     11.27166  eV     2   --> E    G_5 D_5   

 **************************************************************************

 **************************************************************************

                    xk=(   0.00000,   0.50000,   0.00000  )

     Band symmetry, C_4v (4mm)  point group:

     e(  1 -  1) =     -5.92649  eV     1   --> A_1  G_1 D_1   
     e(  2 -  2) =      1.10153  eV     1   --> B_2  G_4 D_2'  
     e(  3 -  4) =      3.78552  eV     2   --> E    G_5 D_5   
     e(  5 -  5) =      6.82459  eV     1   --> A_1  G_1 D_1   
     e(  6 -  6) =      8.60163  eV     1   --> B_2  G_4 D_2'  
     e(  7 -  8) =     11.71751  eV     2   --> E    G_5 D_5   

 **************************************************************************

 **************************************************************************

                    xk=(   0.00000,   0.55000,   0.00000  )

     Band symmetry, C_4v (4mm)  point group:

     e(  1 -  1) =     -5.71882  eV     1   --> A_1  G_1 D_1   
     e(  2 -  2) =      0.64826  eV     1   --> B_2  G_4 D_2'  
     e(  3 -  4) =      3.59653  eV     2   --> E    G_5 D_5   
     e(  5 -  5) =      6.68840  eV     1   --> A_1  G_1 D_1   
     e(  6 -  6) =      8.37937  eV     1   --> B_2  G_4 D_2'  
     e(  7 -  8) =     12.16799  eV     2   --> E    G_5 D_5   

 **************************************************************************

 **************************************************************************

                    xk=(   0.00000,   0.60000,   0.00000  )

     Band symmetry, C_4v (4mm)  point group:

     e(  1 -  1) =     -5.49258  eV     1   --> A_1  G_1 D_1   
     e(  2 -  2) =      0.20109  eV     1   --> B_2  G_4 D_2'  
     e(  3 -  4) =      3.42532  eV     2   --> E    G_5 D_5   
     e(  5 -  5) =      6.57317  eV     1   --> A_1  G_1 D_1   
     e(  6 -  6) =      8.12522  eV     1   --> B_2  G_4 D_2'  
     e(  7 -  8) =     12.62079  eV     2   --> E    G_5 D_5   

 **************************************************************************

 **************************************************************************

                    xk=(   0.00000,   0.65000,   0.00000  )

     Band symmetry, C_4v (4mm)  point group:

     e(  1 -  1) =     -5.24812  eV     1   --> A_1  G_1 D_1   
     e(  2 -  2) =     -0.23937  eV     1   --> B_2  G_4 D_2'  
     e(  3 -  4) =      3.27274  eV     2   --> E    G_5 D_5   
     e(  5 -  5) =      6.48029  eV     1   --> A_1  G_1 D_1   
     e(  6 -  6) =      7.86315  eV     1   --> B_2  G_4 D_2'  
     e(  7 -  8) =     13.07338  eV     2   --> E    G_5 D_5   

 **************************************************************************

 **************************************************************************

                    xk=(   0.00000,   0.70000,   0.00000  )

     Band symmetry, C_4v (4mm)  point group:

     e(  1 -  1) =     -4.98587  eV     1   --> A_1  G_1 D_1   
     e(  2 -  2) =     -0.67241  eV     1   --> B_2  G_4 D_2'  
     e(  3 -  4) =      3.13943  eV     2   --> E    G_5 D_5   
     e(  5 -  5) =      6.41089  eV     1   --> A_1  G_1 D_1   
     e(  6 -  6) =      7.60790  eV     1   --> B_2  G_4 D_2'  
     e(  7 -  8) =     13.52245  eV     2   --> E    G_5 D_5   

 **************************************************************************

 **************************************************************************

                    xk=(   0.00000,   0.75000,   0.00000  )

     Band symmetry, C_4v (4mm)  point group:

     e(  1 -  1) =     -4.70627  eV     1   --> A_1  G_1 D_1   
     e(  2 -  2) =     -1.09725  eV     1   --> B_2  G_4 D_2'  
     e(  3 -  4) =      3.02592  eV     2   --> E    G_5 D_5   
     e(  5 -  5) =      6.36591  eV     1   --> A_1  G_1 D_1   
     e(  6 -  6) =      7.36833  eV     1   --> B_2  G_4 D_2'  
     e(  7 -  8) =     13.96300  eV     2   --> E    G_5 D_5   

 **************************************************************************

 **************************************************************************

                    xk=(   0.00000,   0.80000,   0.00000  )

     Band symmetry, C_4v (4mm)  point group:

     e(  1 -  1) =     -4.40986  eV     1   --> A_1  G_1 D_1   
     e(  2 -  2) =     -1.51306  eV     1   --> B_2  G_4 D_2'  
     e(  3 -  4) =      2.93257  eV     2   --> E    G_5 D_5   
     e(  5 -  5) =      6.34612  eV     1   --> A_1  G_1 D_1   
     e(  6 -  6) =      7.14975  eV     1   --> B_2  G_4 D_2'  
     e(  7 -  8) =     14.38665  eV     2   --> E    G_5 D_5   

 **************************************************************************

 **************************************************************************

                    xk=(   0.00000,   0.85000,   0.00000  )

     Band symmetry, C_4v (4mm)  point group:

     e(  1 -  1) =     -4.09719  eV     1   --> A_1  G_1 D_1   
     e(  2 -  2) =     -1.91896  eV     1   --> B_2  G_4 D_2'  
     e(  3 -  4) =      2.85969  eV     2   --> E    G_5 D_5   
     e(  5 -  5) =      6.35223  eV     1   --> A_1  G_1 D_1   
     e(  6 -  6) =      6.95531  eV     1   --> B_2  G_4 D_2'  
     e(  7 -  8) =     14.77875  eV     2   --> E    G_5 D_5   

 **************************************************************************

 **************************************************************************

                    xk=(   0.00000,   0.90000,   0.00000  )

     Band symmetry, C_4v (4mm)  point group:

     e(  1 -  1) =     -3.76890  eV     1   --> A_1  G_1 D_1   
     e(  2 -  2) =     -2.31405  eV     1   --> B_2  G_4 D_2'  
     e(  3 -  4) =      2.80749  eV     2   --> E    G_5 D_5   
     e(  5 -  5) =      6.38480  eV     1   --> A_1  G_1 D_1   
     e(  6 -  6) =      6.78682  eV     1   --> B_2  G_4 D_2'  
     e(  7 -  8) =     15.11357  eV     2   --> E    G_5 D_5   

 **************************************************************************

 **************************************************************************

                    xk=(   0.00000,   0.95000,   0.00000  )

     Band symmetry, C_4v (4mm)  point group:

     e(  1 -  1) =     -3.42568  eV     1   --> A_1  G_1 D_1   
     e(  2 -  2) =     -2.69744  eV     1   --> B_2  G_4 D_2'  
     e(  3 -  4) =      2.77611  eV     2   --> E    G_5 D_5   
     e(  5 -  5) =      6.44430  eV     1   --> A_1  G_1 D_1   
     e(  6 -  6) =      6.64526  eV     1   --> B_2  G_4 D_2'  
     e(  7 -  8) =     15.34960  eV     2   --> E    G_5 D_5   

 **************************************************************************

 **************************************************************************

                    xk=(   0.00000,   1.00000,   0.00000  )

     zone border point and non-symmorphic group 
     symmetry decomposition not available

 **************************************************************************

 **************************************************************************

                    xk=(   0.00000,   0.98750,   0.03750  )

     point group C_s (m)    
     there are  2 classes
     the character table:

       E     s    
A'     1.00  1.00
A''    1.00 -1.00

     the symmetry operations in each class and the name of the first element:

     E        1
                                                                 
     s        2
                                                                 

     Band symmetry, C_s (m)     point group:

     e(  1 -  1) =     -3.15745  eV     1   --> A'             
     e(  2 -  2) =     -2.97571  eV     1   --> A''            
     e(  3 -  3) =      2.75015  eV     1   --> A'             
     e(  4 -  4) =      2.75107  eV     1   --> A''            
     e(  5 -  5) =      6.53933  eV     1   --> A'             
     e(  6 -  6) =      6.58897  eV     1   --> A''            
     e(  7 -  7) =     15.37313  eV     1   --> A''            
     e(  8 -  8) =     15.38750  eV     1   --> A'             

 **************************************************************************

 **************************************************************************

                    xk=(   0.00000,   0.97500,   0.07500  )

     Band symmetry, C_s (m)     point group:

     e(  1 -  1) =     -3.24220  eV     1   --> A'             
     e(  2 -  2) =     -2.88109  eV     1   --> A''            
     e(  3 -  3) =      2.70396  eV     1   --> A'             
     e(  4 -  4) =      2.71108  eV     1   --> A''            
     e(  5 -  5) =      6.61350  eV     1   --> A'             
     e(  6 -  6) =      6.70944  eV     1   --> A''            
     e(  7 -  7) =     15.15930  eV     1   --> A''            
     e(  8 -  8) =     15.26221  eV     1   --> A'             

 **************************************************************************

 **************************************************************************

                    xk=(   0.00000,   0.96250,   0.11250  )

     Band symmetry, C_s (m)     point group:

     e(  1 -  1) =     -3.32165  eV     1   --> A'             
     e(  2 -  2) =     -2.78591  eV     1   --> A''            
     e(  3 -  3) =      2.63030  eV     1   --> A'             
     e(  4 -  4) =      2.65316  eV     1   --> A''            
     e(  5 -  5) =      6.74957  eV     1   --> A'             
     e(  6 -  6) =      6.88615  eV     1   --> A''            
     e(  7 -  7) =     14.79429  eV     1   --> A''            
     e(  8 -  8) =     15.08313  eV     1   --> A'             

 **************************************************************************

 **************************************************************************

                    xk=(   0.00000,   0.95000,   0.15000  )

     Band symmetry, C_s (m)     point group:

     e(  1 -  1) =     -3.39507  eV     1   --> A'             
     e(  2 -  2) =     -2.69193  eV     1   --> A''            
     e(  3 -  3) =      2.53496  eV     1   --> A'             
     e(  4 -  4) =      2.58602  eV     1   --> A''            
     e(  5 -  5) =      6.94102  eV     1   --> A'             
     e(  6 -  6) =      7.11165  eV     1   --> A''            
     e(  7 -  7) =     14.31904  eV     1   --> A''            
     e(  8 -  8) =     14.86237  eV     1   --> A'             

 **************************************************************************

 **************************************************************************

                    xk=(  -0.00000,   0.93750,   0.18750  )

     Band symmetry, C_s (m)     point group:

     e(  1 -  1) =     -3.46191  eV     1   --> A'             
     e(  2 -  2) =     -2.60114  eV     1   --> A''            
     e(  3 -  3) =      2.42468  eV     1   --> A'             
     e(  4 -  4) =      2.51824  eV     1   --> A''            
     e(  5 -  5) =      7.18051  eV     1   --> A'             
     e(  6 -  6) =      7.37870  eV     1   --> A''            
     e(  7 -  7) =     13.77966  eV     1   --> A''            
     e(  8 -  8) =     14.60750  eV     1   --> A'             

 **************************************************************************

 **************************************************************************

                    xk=(   0.00000,   0.92500,   0.22500  )

     Band symmetry, C_s (m)     point group:

     e(  1 -  1) =     -3.52174  eV     1   --> A'             
     e(  2 -  2) =     -2.51567  eV     1   --> A''            
     e(  3 -  3) =      2.30587  eV     1   --> A'             
     e(  4 -  4) =      2.45746  eV     1   --> A''            
     e(  5 -  5) =      7.46105  eV     1   --> A'             
     e(  6 -  6) =      7.68088  eV     1   --> A''            
     e(  7 -  7) =     13.20795  eV     1   --> A''            
     e(  8 -  8) =     14.32481  eV     1   --> A'             

 **************************************************************************

 **************************************************************************

                    xk=(   0.00000,   0.91250,   0.26250  )

     Band symmetry, C_s (m)     point group:

     e(  1 -  1) =     -3.57421  eV     1   --> A'             
     e(  2 -  2) =     -2.43775  eV     1   --> A''            
     e(  3 -  3) =      2.18405  eV     1   --> A'             
     e(  4 -  4) =      2.41018  eV     1   --> A''            
     e(  5 -  5) =      7.77656  eV     1   --> A'             
     e(  6 -  6) =      8.01271  eV     1   --> A''            
     e(  7 -  7) =     12.62316  eV     1   --> A''            
     e(  8 -  8) =     14.02042  eV     1   --> A'             

 **************************************************************************

 **************************************************************************

                    xk=(   0.00000,   0.90000,   0.30000  )

     Band symmetry, C_s (m)     point group:

     e(  1 -  1) =     -3.61909  eV     1   --> A'             
     e(  2 -  2) =     -2.36952  eV     1   --> A''            
     e(  3 -  3) =      2.06372  eV     1   --> A'             
     e(  4 -  4) =      2.38157  eV     1   --> A''            
     e(  5 -  5) =      8.12202  eV     1   --> A'             
     e(  6 -  6) =      8.36933  eV     1   --> A''            
     e(  7 -  7) =     12.03734  eV     1   --> A''            
     e(  8 -  8) =     13.70040  eV     1   --> A'             

 **************************************************************************

 **************************************************************************

                    xk=(   0.00000,   0.88750,   0.33750  )

     Band symmetry, C_s (m)     point group:

     e(  1 -  1) =     -3.65619  eV     1   --> A'             
     e(  2 -  2) =     -2.31287  eV     1   --> A''            
     e(  3 -  3) =      1.94840  eV     1   --> A'             
     e(  4 -  4) =      2.37550  eV     1   --> A''            
     e(  5 -  5) =      8.49331  eV     1   --> A'             
     e(  6 -  6) =      8.74573  eV     1   --> A''            
     e(  7 -  7) =     11.45943  eV     1   --> A''            
     e(  8 -  8) =     13.37031  eV     1   --> A'             

 **************************************************************************

 **************************************************************************

                    xk=(   0.00000,   0.87500,   0.37500  )

     Band symmetry, C_s (m)     point group:

     e(  1 -  1) =     -3.68541  eV     1   --> A'             
     e(  2 -  2) =     -2.26927  eV     1   --> A''            
     e(  3 -  3) =      1.84083  eV     1   --> A'             
     e(  4 -  4) =      2.39441  eV     1   --> A''            
     e(  5 -  5) =      8.88705  eV     1   --> A'             
     e(  6 -  6) =      9.13415  eV     1   --> A''            
     e(  7 -  7) =     10.89952  eV     1   --> A''            
     e(  8 -  8) =     13.03503  eV     1   --> A'             

 **************************************************************************

 **************************************************************************

                    xk=(   0.00000,   0.86250,   0.41250  )

     Band symmetry, C_s (m)     point group:

     e(  1 -  1) =     -3.70667  eV     1   --> A'             
     e(  2 -  2) =     -2.23956  eV     1   --> A''            
     e(  3 -  3) =      1.74314  eV     1   --> A'             
     e(  4 -  4) =      2.43920  eV     1   --> A''            
     e(  5 -  5) =      9.30032  eV     1   --> A'             
     e(  6 -  6) =      9.50650  eV     1   --> A''            
     e(  7 -  7) =     10.38728  eV     1   --> A''            
     e(  8 -  8) =     12.69868  eV     1   --> A'             

 **************************************************************************

 **************************************************************************

                    xk=(   0.00000,   0.85000,   0.45000  )

     Band symmetry, C_s (m)     point group:

     e(  1 -  1) =     -3.71995  eV     1   --> A'             
     e(  2 -  2) =     -2.22389  eV     1   --> A''            
     e(  3 -  3) =      1.65696  eV     1   --> A'             
     e(  4 -  4) =      2.50915  eV     1   --> A''            
     e(  5 -  5) =      9.59760  eV     1   --> A''            
     e(  6 -  6) =      9.73036  eV     1   --> A'             
     e(  7 -  7) =     10.18920  eV     1   --> A''            
     e(  8 -  8) =     12.36476  eV     1   --> A'             

 **************************************************************************

 **************************************************************************

                    xk=(   0.00000,   0.83750,   0.48750  )

     Band symmetry, C_s (m)     point group:

     e(  1 -  1) =     -3.72524  eV     1   --> A'             
     e(  2 -  2) =     -2.22175  eV     1   --> A''            
     e(  3 -  3) =      1.58358  eV     1   --> A'             
     e(  4 -  4) =      2.60178  eV     1   --> A''            
     e(  5 -  5) =      9.18770  eV     1   --> A''            
     e(  6 -  6) =     10.17404  eV     1   --> A'             
     e(  7 -  7) =     10.52623  eV     1   --> A''            
     e(  8 -  8) =     12.03675  eV     1   --> A'             

 **************************************************************************

 **************************************************************************

                    xk=(  -0.00000,   0.82500,   0.52500  )

     Band symmetry, C_s (m)     point group:

     e(  1 -  1) =     -3.72255  eV     1   --> A'             
     e(  2 -  2) =     -2.23211  eV     1   --> A''            
     e(  3 -  3) =      1.52397  eV     1   --> A'             
     e(  4 -  4) =      2.71267  eV     1   --> A''            
     e(  5 -  5) =      8.72143  eV     1   --> A''            
     e(  6 -  6) =     10.62552  eV     1   --> A'             
     e(  7 -  7) =     10.95496  eV     1   --> A''            
     e(  8 -  8) =     11.72031  eV     1   --> A'             

 **************************************************************************

 **************************************************************************

                    xk=(   0.00000,   0.81250,   0.56250  )

     Band symmetry, C_s (m)     point group:

     e(  1 -  1) =     -3.71190  eV     1   --> A'             
     e(  2 -  2) =     -2.25357  eV     1   --> A''            
     e(  3 -  3) =      1.47888  eV     1   --> A'             
     e(  4 -  4) =      2.83522  eV     1   --> A''            
     e(  5 -  5) =      8.27692  eV     1   --> A''            
     e(  6 -  6) =     11.04869  eV     1   --> A'             
     e(  7 -  7) =     11.39839  eV     1   --> A''            
     e(  8 -  8) =     11.45073  eV     1   --> A'             

 **************************************************************************

 **************************************************************************

                    xk=(   0.00000,   0.80000,   0.60000  )

     Band symmetry, C_s (m)     point group:

     e(  1 -  1) =     -3.69332  eV     1   --> A'             
     e(  2 -  2) =     -2.28458  eV     1   --> A''            
     e(  3 -  3) =      1.44889  eV     1   --> A'             
     e(  4 -  4) =      2.96019  eV     1   --> A''            
     e(  5 -  5) =      7.87206  eV     1   --> A''            
     e(  6 -  6) =     11.03124  eV     1   --> A'             
     e(  7 -  7) =     11.63854  eV     1   --> A'             
     e(  8 -  8) =     11.83906  eV     1   --> A''            

 **************************************************************************

 **************************************************************************

                    xk=(   0.00000,   0.78750,   0.63750  )

     Band symmetry, C_s (m)     point group:

     e(  1 -  1) =     -3.66683  eV     1   --> A'             
     e(  2 -  2) =     -2.32366  eV     1   --> A''            
     e(  3 -  3) =      1.43438  eV     1   --> A'             
     e(  4 -  4) =      3.07521  eV     1   --> A''            
     e(  5 -  5) =      7.52099  eV     1   --> A''            
     e(  6 -  6) =     10.75597  eV     1   --> A'             
     e(  7 -  7) =     12.09716  eV     1   --> A'             
     e(  8 -  8) =     12.26123  eV     1   --> A''            

 **************************************************************************

 **************************************************************************

                    xk=(   0.00000,   0.77500,   0.67500  )

     Band symmetry, C_s (m)     point group:

     e(  1 -  1) =     -3.63244  eV     1   --> A'             
     e(  2 -  2) =     -2.36950  eV     1   --> A''            
     e(  3 -  3) =      1.43561  eV     1   --> A'             
     e(  4 -  4) =      3.16472  eV     1   --> A''            
     e(  5 -  5) =      7.23957  eV     1   --> A''            
     e(  6 -  6) =     10.47453  eV     1   --> A'             
     e(  7 -  7) =     12.56561  eV     1   --> A'             
     e(  8 -  8) =     12.64225  eV     1   --> A''            

 **************************************************************************

 **************************************************************************

                    xk=(   0.00000,   0.76250,   0.71250  )

     Band symmetry, C_s (m)     point group:

     e(  1 -  1) =     -3.59014  eV     1   --> A'             
     e(  2 -  2) =     -2.42108  eV     1   --> A''            
     e(  3 -  3) =      1.45272  eV     1   --> A'             
     e(  4 -  4) =      3.21146  eV     1   --> A''            
     e(  5 -  5) =      7.04497  eV     1   --> A''            
     e(  6 -  6) =     10.20119  eV     1   --> A'             
     e(  7 -  7) =     12.94907  eV     1   --> A''            
     e(  8 -  8) =     12.99959  eV     1   --> A'             

 **************************************************************************

 **************************************************************************

                    xk=(   0.00000,   0.75000,   0.75000  )

     point group C_2v (mm2) 
     there are  4 classes
     the character table:

       E     C2    s_v   s_v' 
A_1    1.00  1.00  1.00  1.00
A_2    1.00  1.00 -1.00 -1.00
B_1    1.00 -1.00  1.00 -1.00
B_2    1.00 -1.00 -1.00  1.00

     the symmetry operations in each class and the name of the first element:

     E        1
                                                                 
     C2       2
                                                                 
     s_v      4
                                                                 
     s_v'     3
                                                                 

     Band symmetry, C_2v (mm2)  point group:

     e(  1 -  1) =     -3.53990  eV     1   --> A_1  D_1  S_1  
     e(  2 -  2) =     -2.47771  eV     1   --> B_1  D_3  S_3  
     e(  3 -  3) =      1.48572  eV     1   --> A_1  D_1  S_1  
     e(  4 -  4) =      3.20085  eV     1   --> A_2  D_2  S_2  
     e(  5 -  5) =      6.95171  eV     1   --> B_1  D_3  S_3  
     e(  6 -  6) =      9.93875  eV     1   --> A_1  D_1  S_1  
     e(  7 -  7) =     13.14519  eV     1   --> B_1  D_3  S_3  
     e(  8 -  8) =     13.28524  eV     1   --> B_2  D_4  S_4  

 **************************************************************************

 **************************************************************************

                    xk=(   0.00000,   0.71250,   0.71250  )

     Band symmetry, C_2v (mm2)  point group:

     e(  1 -  1) =     -3.71752  eV     1   --> A_1  D_1  S_1  
     e(  2 -  2) =     -2.28738  eV     1   --> B_1  D_3  S_3  
     e(  3 -  3) =      1.39427  eV     1   --> A_1  D_1  S_1  
     e(  4 -  4) =      3.33534  eV     1   --> A_2  D_2  S_2  
     e(  5 -  5) =      7.07671  eV     1   --> B_1  D_3  S_3  
     e(  6 -  6) =     10.72033  eV     1   --> A_1  D_1  S_1  
     e(  7 -  7) =     12.75845  eV     1   --> B_1  D_3  S_3  
     e(  8 -  8) =     12.85069  eV     1   --> B_2  D_4  S_4  

 **************************************************************************

 **************************************************************************

                    xk=(   0.00000,   0.67500,   0.67500  )

     Band symmetry, C_2v (mm2)  point group:

     e(  1 -  1) =     -3.92242  eV     1   --> A_1  D_1  S_1  
     e(  2 -  2) =     -2.07059  eV     1   --> B_1  D_3  S_3  
     e(  3 -  3) =      1.36570  eV     1   --> A_1  D_1  S_1  
     e(  4 -  4) =      3.48483  eV     1   --> A_2  D_2  S_2  
     e(  5 -  5) =      7.21143  eV     1   --> B_1  D_3  S_3  
     e(  6 -  6) =     11.50039  eV     1   --> A_1  D_1  S_1  
     e(  7 -  7) =     12.39654  eV     1   --> B_1  D_3  S_3  
     e(  8 -  8) =     12.42511  eV     1   --> B_2  D_4  S_4  

 **************************************************************************

 **************************************************************************

                    xk=(   0.00000,   0.63750,   0.63750  )

     Band symmetry, C_2v (mm2)  point group:

     e(  1 -  1) =     -4.14912  eV     1   --> A_1  D_1  S_1  
     e(  2 -  2) =     -1.82740  eV     1   --> B_1  D_3  S_3  
     e(  3 -  3) =      1.39779  eV     1   --> A_1  D_1  S_1  
     e(  4 -  4) =      3.64765  eV     1   --> A_2  D_2  S_2  
     e(  5 -  5) =      7.35155  eV     1   --> B_1  D_3  S_3  
     e(  6 -  6) =     12.01274  eV     1   --> B_2  D_4  S_4  
     e(  7 -  7) =     12.06514  eV     1   --> B_1  D_3  S_3  
     e(  8 -  8) =     12.08885  eV     1   --> A_1  D_1  S_1  

 **************************************************************************

 **************************************************************************

                    xk=(   0.00000,   0.60000,   0.60000  )

     Band symmetry, C_2v (mm2)  point group:

     e(  1 -  1) =     -4.39100  eV     1   --> A_1  D_1  S_1  
     e(  2 -  2) =     -1.55788  eV     1   --> B_1  D_3  S_3  
     e(  3 -  3) =      1.48597  eV     1   --> A_1  D_1  S_1  
     e(  4 -  4) =      3.82175  eV     1   --> A_2  D_2  S_2  
     e(  5 -  5) =      7.49128  eV     1   --> B_1  D_3  S_3  
     e(  6 -  6) =     11.61663  eV     1   --> B_2  D_4  S_4  
     e(  7 -  7) =     11.77030  eV     1   --> B_1  D_3  S_3  
     e(  8 -  8) =     11.96443  eV     1   --> A_1  D_1  S_1  

 **************************************************************************

 **************************************************************************

                    xk=(   0.00000,   0.56250,   0.56250  )

     Band symmetry, C_2v (mm2)  point group:

     e(  1 -  1) =     -4.64127  eV     1   --> A_1  D_1  S_1  
     e(  2 -  2) =     -1.26212  eV     1   --> B_1  D_3  S_3  
     e(  3 -  3) =      1.62471  eV     1   --> A_1  D_1  S_1  
     e(  4 -  4) =      4.00475  eV     1   --> A_2  D_2  S_2  
     e(  5 -  5) =      7.62315  eV     1   --> B_1  D_3  S_3  
     e(  6 -  6) =     11.23898  eV     1   --> B_2  D_4  S_4  
     e(  7 -  7) =     11.51865  eV     1   --> B_1  D_3  S_3  
     e(  8 -  8) =     11.60008  eV     1   --> A_1  D_1  S_1  

 **************************************************************************

 **************************************************************************

                    xk=(   0.00000,   0.52500,   0.52500  )

     Band symmetry, C_2v (mm2)  point group:

     e(  1 -  1) =     -4.89374  eV     1   --> A_1  D_1  S_1  
     e(  2 -  2) =     -0.94026  eV     1   --> B_1  D_3  S_3  
     e(  3 -  3) =      1.80841  eV     1   --> A_1  D_1  S_1  
     e(  4 -  4) =      4.19384  eV     1   --> A_2  D_2  S_2  
     e(  5 -  5) =      7.73809  eV     1   --> B_1  D_3  S_3  
     e(  6 -  6) =     10.88142  eV     1   --> B_2  D_4  S_4  
     e(  7 -  7) =     11.22403  eV     1   --> A_1  D_1  S_1  
     e(  8 -  8) =     11.31710  eV     1   --> B_1  D_3  S_3  

 **************************************************************************

 **************************************************************************

                    xk=(   0.00000,   0.48750,   0.48750  )

     Band symmetry, C_2v (mm2)  point group:

     e(  1 -  1) =     -5.14305  eV     1   --> A_1  D_1  S_1  
     e(  2 -  2) =     -0.59247  eV     1   --> B_1  D_3  S_3  
     e(  3 -  3) =      2.03181  eV     1   --> A_1  D_1  S_1  
     e(  4 -  4) =      4.38586  eV     1   --> A_2  D_2  S_2  
     e(  5 -  5) =      7.82634  eV     1   --> B_1  D_3  S_3  
     e(  6 -  6) =     10.54522  eV     1   --> B_2  D_4  S_4  
     e(  7 -  7) =     10.86343  eV     1   --> A_1  D_1  S_1  
     e(  8 -  8) =     11.17143  eV     1   --> B_1  D_3  S_3  

 **************************************************************************

 **************************************************************************

                    xk=(   0.00000,   0.45000,   0.45000  )

     Band symmetry, C_2v (mm2)  point group:

     e(  1 -  1) =     -5.38481  eV     1   --> A_1  D_1  S_1  
     e(  2 -  2) =     -0.21897  eV     1   --> B_1  D_3  S_3  
     e(  3 -  3) =      2.29010  eV     1   --> A_1  D_1  S_1  
     e(  4 -  4) =      4.57727  eV     1   --> A_2  D_2  S_2  
     e(  5 -  5) =      7.87948  eV     1   --> B_1  D_3  S_3  
     e(  6 -  6) =     10.23137  eV     1   --> B_2  D_4  S_4  
     e(  7 -  7) =     10.52447  eV     1   --> A_1  D_1  S_1  
     e(  8 -  8) =     11.08330  eV     1   --> B_1  D_3  S_3  

 **************************************************************************

 **************************************************************************

                    xk=(   0.00000,   0.41250,   0.41250  )

     Band symmetry, C_2v (mm2)  point group:

     e(  1 -  1) =     -5.61550  eV     1   --> A_1  D_1  S_1  
     e(  2 -  2) =      0.17994  eV     1   --> B_1  D_3  S_3  
     e(  3 -  3) =      2.57884  eV     1   --> A_1  D_1  S_1  
     e(  4 -  4) =      4.76429  eV     1   --> A_2  D_2  S_2  
     e(  5 -  5) =      7.89317  eV     1   --> B_1  D_3  S_3  
     e(  6 -  6) =      9.94062  eV     1   --> B_2  D_4  S_4  
     e(  7 -  7) =     10.20924  eV     1   --> A_1  D_1  S_1  
     e(  8 -  8) =     11.04579  eV     1   --> B_1  D_3  S_3  

 **************************************************************************

 **************************************************************************

                    xk=(   0.00000,   0.37500,   0.37500  )

     Band symmetry, C_2v (mm2)  point group:

     e(  1 -  1) =     -5.83231  eV     1   --> A_1  D_1  S_1  
     e(  2 -  2) =      0.60389  eV     1   --> B_1  D_3  S_3  
     e(  3 -  3) =      2.89374  eV     1   --> A_1  D_1  S_1  
     e(  4 -  4) =      4.94307  eV     1   --> A_2  D_2  S_2  
     e(  5 -  5) =      7.86874  eV     1   --> B_1  D_3  S_3  
     e(  6 -  6) =      9.67362  eV     1   --> B_2  D_4  S_4  
     e(  7 -  7) =      9.91856  eV     1   --> A_1  D_1  S_1  
     e(  8 -  8) =     11.03878  eV     1   --> B_1  D_3  S_3  

 **************************************************************************

 **************************************************************************

                    xk=(   0.00000,   0.33750,   0.33750  )

     Band symmetry, C_2v (mm2)  point group:

     e(  1 -  1) =     -6.03306  eV     1   --> A_1  D_1  S_1  
     e(  2 -  2) =      1.05235  eV     1   --> B_1  D_3  S_3  
     e(  3 -  3) =      3.23040  eV     1   --> A_1  D_1  S_1  
     e(  4 -  4) =      5.10992  eV     1   --> A_2  D_2  S_2  
     e(  5 -  5) =      7.81233  eV     1   --> B_1  D_3  S_3  
     e(  6 -  6) =      9.43086  eV     1   --> B_2  D_4  S_4  
     e(  7 -  7) =      9.65269  eV     1   --> A_1  D_1  S_1  
     e(  8 -  8) =     11.02560  eV     1   --> B_1  D_3  S_3  

 **************************************************************************

 **************************************************************************

                    xk=(   0.00000,   0.30000,   0.30000  )

     Band symmetry, C_2v (mm2)  point group:

     e(  1 -  1) =     -6.21603  eV     1   --> A_1  D_1  S_1  
     e(  2 -  2) =      1.52465  eV     1   --> B_1  D_3  S_3  
     e(  3 -  3) =      3.58396  eV     1   --> A_1  D_1  S_1  
     e(  4 -  4) =      5.26162  eV     1   --> A_2  D_2  S_2  
     e(  5 -  5) =      7.73197  eV     1   --> B_1  D_3  S_3  
     e(  6 -  6) =      9.21275  eV     1   --> B_2  D_4  S_4  
     e(  7 -  7) =      9.41155  eV     1   --> A_1  D_1  S_1  
     e(  8 -  8) =     10.95353  eV     1   --> B_1  D_3  S_3  

 **************************************************************************

 **************************************************************************

                    xk=(   0.00000,   0.26250,   0.26250  )

     Band symmetry, C_2v (mm2)  point group:

     e(  1 -  1) =     -6.37989  eV     1   --> A_1  D_1  S_1  
     e(  2 -  2) =      2.01985  eV     1   --> B_1  D_3  S_3  
     e(  3 -  3) =      3.94866  eV     1   --> A_1  D_1  S_1  
     e(  4 -  4) =      5.39570  eV     1   --> A_2  D_2  S_2  
     e(  5 -  5) =      7.63462  eV     1   --> B_1  D_3  S_3  
     e(  6 -  6) =      9.01962  eV     1   --> B_2  D_4  S_4  
     e(  7 -  7) =      9.19485  eV     1   --> A_1  D_1  S_1  
     e(  8 -  8) =     10.76743  eV     1   --> B_1  D_3  S_3  

 **************************************************************************

 **************************************************************************

                    xk=(   0.00000,   0.22500,   0.22500  )

     Band symmetry, C_2v (mm2)  point group:

     e(  1 -  1) =     -6.52359  eV     1   --> A_1  D_1  S_1  
     e(  2 -  2) =      2.53664  eV     1   --> B_1  D_3  S_3  
     e(  3 -  3) =      4.31725  eV     1   --> A_1  D_1  S_1  
     e(  4 -  4) =      5.51059  eV     1   --> A_2  D_2  S_2  
     e(  5 -  5) =      7.52391  eV     1   --> B_1  D_3  S_3  
     e(  6 -  6) =      8.85175  eV     1   --> B_2  D_4  S_4  
     e(  7 -  7) =      9.00212  eV     1   --> A_1  D_1  S_1  
     e(  8 -  8) =     10.44314  eV     1   --> B_1  D_3  S_3  

 **************************************************************************

 **************************************************************************

                    xk=(   0.00000,   0.18750,   0.18750  )

     Band symmetry, C_2v (mm2)  point group:

     e(  1 -  1) =     -6.64634  eV     1   --> A_1  D_1  S_1  
     e(  2 -  2) =      3.07317  eV     1   --> B_1  D_3  S_3  
     e(  3 -  3) =      4.68022  eV     1   --> A_1  D_1  S_1  
     e(  4 -  4) =      5.60573  eV     1   --> A_2  D_2  S_2  
     e(  5 -  5) =      7.39800  eV     1   --> B_1  D_3  S_3  
     e(  6 -  6) =      8.70937  eV     1   --> B_2  D_4  S_4  
     e(  7 -  7) =      8.83282  eV     1   --> A_1  D_1  S_1  
     e(  8 -  8) =     10.00874  eV     1   --> B_1  D_3  S_3  

 **************************************************************************

 **************************************************************************

                    xk=(   0.00000,   0.15000,   0.15000  )

     Band symmetry, C_2v (mm2)  point group:

     e(  1 -  1) =     -6.74751  eV     1   --> A_1  D_1  S_1  
     e(  2 -  2) =      3.62668  eV     1   --> B_1  D_3  S_3  
     e(  3 -  3) =      5.02475  eV     1   --> A_1  D_1  S_1  
     e(  4 -  4) =      5.68140  eV     1   --> A_2  D_2  S_2  
     e(  5 -  5) =      7.24644  eV     1   --> B_1  D_3  S_3  
     e(  6 -  6) =      8.59265  eV     1   --> B_2  D_4  S_4  
     e(  7 -  7) =      8.68668  eV     1   --> A_1  D_1  S_1  
     e(  8 -  8) =      9.52522  eV     1   --> B_1  D_3  S_3  

 **************************************************************************

 **************************************************************************

                    xk=(   0.00000,   0.11250,   0.11250  )

     Band symmetry, C_2v (mm2)  point group:

     e(  1 -  1) =     -6.82664  eV     1   --> A_1  D_1  S_1  
     e(  2 -  2) =      4.19293  eV     1   --> B_1  D_3  S_3  
     e(  3 -  3) =      5.33355  eV     1   --> A_1  D_1  S_1  
     e(  4 -  4) =      5.73849  eV     1   --> A_2  D_2  S_2  
     e(  5 -  5) =      7.04571  eV     1   --> B_1  D_3  S_3  
     e(  6 -  6) =      8.50173  eV     1   --> B_2  D_4  S_4  
     e(  7 -  7) =      8.56446  eV     1   --> A_1  D_1  S_1  
     e(  8 -  8) =      9.06246  eV     1   --> B_1  D_3  S_3  

 **************************************************************************

 **************************************************************************

                    xk=(   0.00000,   0.07500,   0.07500  )

     Band symmetry, C_2v (mm2)  point group:

     e(  1 -  1) =     -6.88338  eV     1   --> A_1  D_1  S_1  
     e(  2 -  2) =      4.76493  eV     1   --> B_1  D_3  S_3  
     e(  3 -  3) =      5.58414  eV     1   --> A_1  D_1  S_1  
     e(  4 -  4) =      5.77812  eV     1   --> A_2  D_2  S_2  
     e(  5 -  5) =      6.76072  eV     1   --> B_1  D_3  S_3  
     e(  6 -  6) =      8.43671  eV     1   --> B_2  D_4  S_4  
     e(  7 -  7) =      8.46910  eV     1   --> A_1  D_1  S_1  
     e(  8 -  8) =      8.69045  eV     1   --> B_1  D_3  S_3  

 **************************************************************************

 **************************************************************************

                    xk=(   0.00000,   0.03750,   0.03750  )

     Band symmetry, C_2v (mm2)  point group:

     e(  1 -  1) =     -6.91752  eV     1   --> A_1  D_1  S_1  
     e(  2 -  2) =      5.33025  eV     1   --> B_1  D_3  S_3  
     e(  3 -  3) =      5.75039  eV     1   --> A_1  D_1  S_1  
     e(  4 -  4) =      5.80139  eV     1   --> A_2  D_2  S_2  
     e(  5 -  5) =      6.36908  eV     1   --> B_1  D_3  S_3  
     e(  6 -  6) =      8.39767  eV     1   --> B_2  D_4  S_4  
     e(  7 -  7) =      8.40667  eV     1   --> A_1  D_1  S_1  
     e(  8 -  8) =      8.46028  eV     1   --> B_1  D_3  S_3  

 **************************************************************************

 **************************************************************************

                    xk=(   0.00000,   0.00000,   0.00000  )

     point group O_h (m-3m) 
     there are 10 classes
     the character table:

       E     8C3   3C2   6C4   6C2'  i     8S6   3s_h  6S4   6s_d 
A_1g   1.00  1.00  1.00  1.00  1.00  1.00  1.00  1.00  1.00  1.00
A_2g   1.00  1.00  1.00 -1.00 -1.00  1.00  1.00  1.00 -1.00 -1.00
E_g    2.00 -1.00  2.00  0.00  0.00  2.00 -1.00  2.00  0.00  0.00
T_1g   3.00  0.00 -1.00  1.00 -1.00  3.00  0.00 -1.00  1.00 -1.00
T_2g   3.00  0.00 -1.00 -1.00  1.00  3.00  0.00 -1.00 -1.00  1.00
A_1u   1.00  1.00  1.00  1.00  1.00 -1.00 -1.00 -1.00 -1.00 -1.00
A_2u   1.00  1.00  1.00 -1.00 -1.00 -1.00 -1.00 -1.00  1.00  1.00
E_u    2.00 -1.00  2.00  0.00  0.00 -2.00  1.00 -2.00  0.00  0.00
T_1u   3.00  0.00 -1.00  1.00 -1.00 -3.00  0.00  1.00 -1.00  1.00
T_2u   3.00  0.00 -1.00 -1.00  1.00 -3.00  0.00  1.00  1.00 -1.00

     the symmetry operations in each class and the name of the first element:

     E        1
                                                                 
     8C3     17   19   20   18   24   21   22   23
                                                                 
     3C2      2    4    3
                                                                 
     6C4      7    8   15   16   12   11
                                                                 
     6C2'     5    6   14   13   10    9
                                                                 
     i       25
                                                                 
     8S6     41   43   44   42   48   45   46   47
                                                                 
     3s_h    26   28   27
                                                                 
     6S4     31   32   39   40   36   35
                                                                 
     6s_d    29   30   38   37   34   33
                                                                 

     Band symmetry, O_h (m-3m)  point group:

     e(  1 -  1) =     -6.92892  eV     1   --> A_1g G_1   G_1+
     e(  2 -  4) =      5.80905  eV     3   --> T_2g G_25' G_5+
     e(  5 -  5) =      5.94623  eV     1   --> A_2u G_2'  G_2-
     e(  6 -  8) =      8.38465  eV     3   --> T_1u G_15  G_4-

 **************************************************************************

     BANDS        :     31.81s CPU     14.74s WALL


   This run was terminated on:   7:16:45  19Dec2024            

=------------------------------------------------------------------------------=
   JOB DONE.
=------------------------------------------------------------------------------=
