
     Program BANDS v.7.0 starts on 19Dec2024 at  7:23:22 

     This program is part of the open-source Quantum ESPRESSO suite
     for quantum simulation of materials; please cite
         "P. Giannozzi et al., J. Phys.:Condens. Matter 21 395502 (2009);
         "P. Giannozzi et al., J. Phys.:Condens. Matter 29 465901 (2017);
         "P. Giannozzi et al., J. Chem. Phys. 152 154105 (2020);
          URL http://www.quantum-espresso.org", 
     in publications or presentations arising from this work. More details at
     http://www.quantum-espresso.org/quote

     Parallel version (MPI & OpenMP), running on       2 processor cores
     Number of MPI processes:                 1
     Threads/MPI process:                     2

     MPI processes distributed on     1 nodes
     147 MiB available memory on the printing compute node when the environment starts


     Reading xml data from directory:

     ./outputs/ge.save/
     Message from routine volume:
     axis vectors are left-handed
     file Ge.rel-pbe-dn-kjpaw_psl.1.0.0.UPF: wavefunction(s)  4S 4P 4P 3D 3D renormalized

     IMPORTANT: XC functional enforced from input :
     Exchange-correlation= PBE
                           (   1   4   3   4   0   0   0)
     Any further DFT definition will be discarded
     Please, verify this is what you really want


     G-vector sticks info
     --------------------
     sticks:   dense  smooth     PW     G-vecs:    dense   smooth      PW
     Sum         793     793    241                14553    14553    2397

     Using Slab Decomposition


     Check: negative core charge=   -0.000006
     Reading collected, re-writing distributed wavefunctions
     high-symmetry point:  0.5000 0.5000 0.5000   x coordinate   0.0000
     high-symmetry point:  0.0000 0.0000 0.0000   x coordinate   0.8660
     high-symmetry point:  0.0000 1.0000 0.0000   x coordinate   1.8660
     high-symmetry point:  0.0000 0.7500 0.7500   x coordinate   2.6566
     high-symmetry point:  0.0000 0.0000 0.0000   x coordinate   3.7173

     Plottable bands (eV) written to file Ge_bands_w_soc.dat.gnu
     Bands written to file Ge_bands_w_soc.dat

 **************************************************************************

                    xk=(   0.50000,   0.50000,   0.50000  )

     zone border point and non-symmorphic group 
     symmetry decomposition not available

 **************************************************************************

 **************************************************************************

                    xk=(   0.47500,   0.47500,   0.47500  )

     double point group C_3v (3m)  
     there are  6 classes and  3 irreducible representations
     the character table:

       E     -E    2C3   -2C3  3s_v  -3s_v
                                          
G_4    2.00 -2.00  1.00 -1.00  0.00  0.00
G_5    1.00 -1.00 -1.00  1.00  0.00  0.00
G_6    1.00 -1.00 -1.00  1.00  0.00  0.00

     imaginary part

       E     -E    2C3   -2C3  3s_v  -3s_v
                                          
G_4    0.00  0.00  0.00  0.00  0.00  0.00
G_5    0.00  0.00  0.00  0.00  1.00 -1.00
G_6    0.00  0.00  0.00  0.00 -1.00  1.00

     the symmetry operations in each class and the name of the first element:

     E             1
                                                                 
     -E           -1
                                                                 
     2C3           2    3
                                                                 
     -2C3         -2   -3
                                                                 
     3s_v          4    5   -6
                                                                 
     -3s_v         6   -4   -5
                                                                 

     Band symmetry, C_3v (3m)   double point group:

     e(  1 -  2) =    -16.59560  eV     2   --> G_5   L_4      
     e(  1 -  2) =    -16.59560  eV     2   --> G_6   L_5      
     e(  3 -  4) =    -16.56381  eV     2   --> G_4   L_6      
     e(  5 -  6) =    -16.54954  eV     2   --> G_4   L_6      
     e(  7 -  8) =    -16.51593  eV     2   --> G_5   L_4      
     e(  7 -  8) =    -16.51593  eV     2   --> G_6   L_5      
     e(  9 - 10) =    -16.03459  eV     2   --> G_4   L_6      
     e( 11 - 12) =    -16.01161  eV     2   --> G_4   L_6      
     e( 13 - 14) =    -15.97310  eV     2   --> G_5   L_4      
     e( 13 - 14) =    -15.97310  eV     2   --> G_6   L_5      
     e( 15 - 16) =    -15.87492  eV     2   --> G_5   L_4      
     e( 15 - 16) =    -15.87492  eV     2   --> G_6   L_5      
     e( 17 - 18) =    -15.86771  eV     2   --> G_4   L_6      
     e( 19 - 20) =    -15.86247  eV     2   --> G_4   L_6      
     e( 21 - 22) =     -2.21943  eV     2   --> G_4   L_6      
     e( 23 - 24) =      0.93670  eV     2   --> G_4   L_6      
     e( 25 - 26) =      6.99779  eV     2   --> G_4   L_6      
     e( 27 - 28) =      7.18388  eV     2   --> G_5   L_4      
     e( 27 - 28) =      7.18388  eV     2   --> G_6   L_5      
     e( 29 - 30) =      8.68217  eV     2   --> G_4   L_6      
     e( 31 - 32) =     12.18727  eV     2   --> G_4   L_6      
     e( 33 - 34) =     12.28059  eV     2   --> G_5   L_4      
     e( 33 - 34) =     12.28059  eV     2   --> G_6   L_5      
     e( 35 - 36) =     15.65111  eV     2   --> G_4   L_6      

 **************************************************************************

 **************************************************************************

                    xk=(   0.45000,   0.45000,   0.45000  )

     Band symmetry, C_3v (3m)   double point group:

     e(  1 -  2) =    -16.59553  eV     2   --> G_5   L_4      
     e(  1 -  2) =    -16.59553  eV     2   --> G_6   L_5      
     e(  3 -  4) =    -16.56474  eV     2   --> G_4   L_6      
     e(  5 -  6) =    -16.54854  eV     2   --> G_4   L_6      
     e(  7 -  8) =    -16.51609  eV     2   --> G_5   L_4      
     e(  7 -  8) =    -16.51609  eV     2   --> G_6   L_5      
     e(  9 - 10) =    -16.03646  eV     2   --> G_4   L_6      
     e( 11 - 12) =    -16.00976  eV     2   --> G_4   L_6      
     e( 13 - 14) =    -15.97279  eV     2   --> G_5   L_4      
     e( 13 - 14) =    -15.97279  eV     2   --> G_6   L_5      
     e( 15 - 16) =    -15.87534  eV     2   --> G_5   L_4      
     e( 15 - 16) =    -15.87534  eV     2   --> G_6   L_5      
     e( 17 - 18) =    -15.86901  eV     2   --> G_4   L_6      
     e( 19 - 20) =    -15.86110  eV     2   --> G_4   L_6      
     e( 21 - 22) =     -2.29950  eV     2   --> G_4   L_6      
     e( 23 - 24) =      1.06364  eV     2   --> G_4   L_6      
     e( 25 - 26) =      7.01407  eV     2   --> G_4   L_6      
     e( 27 - 28) =      7.20016  eV     2   --> G_5   L_4      
     e( 27 - 28) =      7.20016  eV     2   --> G_6   L_5      
     e( 29 - 30) =      8.69779  eV     2   --> G_4   L_6      
     e( 31 - 32) =     12.19293  eV     2   --> G_4   L_6      
     e( 33 - 34) =     12.28776  eV     2   --> G_5   L_4      
     e( 33 - 34) =     12.28776  eV     2   --> G_6   L_5      
     e( 35 - 36) =     15.67303  eV     2   --> G_4   L_6      

 **************************************************************************

 **************************************************************************

                    xk=(   0.42500,   0.42500,   0.42500  )

     Band symmetry, C_3v (3m)   double point group:

     e(  1 -  2) =    -16.59543  eV     2   --> G_5   L_4      
     e(  1 -  2) =    -16.59543  eV     2   --> G_6   L_5      
     e(  3 -  4) =    -16.56651  eV     2   --> G_4   L_6      
     e(  5 -  6) =    -16.54721  eV     2   --> G_4   L_6      
     e(  7 -  8) =    -16.51647  eV     2   --> G_5   L_4      
     e(  7 -  8) =    -16.51647  eV     2   --> G_6   L_5      
     e(  9 - 10) =    -16.03940  eV     2   --> G_4   L_6      
     e( 11 - 12) =    -16.00722  eV     2   --> G_4   L_6      
     e( 13 - 14) =    -15.97232  eV     2   --> G_5   L_4      
     e( 13 - 14) =    -15.97232  eV     2   --> G_6   L_5      
     e( 15 - 16) =    -15.87642  eV     2   --> G_5   L_4      
     e( 15 - 16) =    -15.87642  eV     2   --> G_6   L_5      
     e( 17 - 18) =    -15.87063  eV     2   --> G_4   L_6      
     e( 19 - 20) =    -15.85964  eV     2   --> G_4   L_6      
     e( 21 - 22) =     -2.41986  eV     2   --> G_4   L_6      
     e( 23 - 24) =      1.26201  eV     2   --> G_4   L_6      
     e( 25 - 26) =      7.04113  eV     2   --> G_4   L_6      
     e( 27 - 28) =      7.22722  eV     2   --> G_5   L_4      
     e( 27 - 28) =      7.22722  eV     2   --> G_6   L_5      
     e( 29 - 30) =      8.72373  eV     2   --> G_4   L_6      
     e( 31 - 32) =     12.20098  eV     2   --> G_4   L_6      
     e( 33 - 34) =     12.29833  eV     2   --> G_5   L_4      
     e( 33 - 34) =     12.29833  eV     2   --> G_6   L_5      
     e( 35 - 36) =     15.70654  eV     2   --> G_4   L_6      

 **************************************************************************

 **************************************************************************

                    xk=(   0.40000,   0.40000,   0.40000  )

     Band symmetry, C_3v (3m)   double point group:

     e(  1 -  2) =    -16.59523  eV     2   --> G_5   L_4      
     e(  1 -  2) =    -16.59523  eV     2   --> G_6   L_5      
     e(  3 -  4) =    -16.56814  eV     2   --> G_4   L_6      
     e(  5 -  6) =    -16.54562  eV     2   --> G_4   L_6      
     e(  7 -  8) =    -16.51674  eV     2   --> G_5   L_4      
     e(  7 -  8) =    -16.51674  eV     2   --> G_6   L_5      
     e(  9 - 10) =    -16.04262  eV     2   --> G_4   L_6      
     e( 11 - 12) =    -16.00411  eV     2   --> G_4   L_6      
     e( 13 - 14) =    -15.97159  eV     2   --> G_5   L_4      
     e( 13 - 14) =    -15.97159  eV     2   --> G_6   L_5      
     e( 15 - 16) =    -15.87724  eV     2   --> G_5   L_4      
     e( 15 - 16) =    -15.87724  eV     2   --> G_6   L_5      
     e( 17 - 18) =    -15.87226  eV     2   --> G_4   L_6      
     e( 19 - 20) =    -15.85787  eV     2   --> G_4   L_6      
     e( 21 - 22) =     -2.56719  eV     2   --> G_4   L_6      
     e( 23 - 24) =      1.51833  eV     2   --> G_4   L_6      
     e( 25 - 26) =      7.07887  eV     2   --> G_4   L_6      
     e( 27 - 28) =      7.26498  eV     2   --> G_5   L_4      
     e( 27 - 28) =      7.26498  eV     2   --> G_6   L_5      
     e( 29 - 30) =      8.75986  eV     2   --> G_4   L_6      
     e( 31 - 32) =     12.20929  eV     2   --> G_4   L_6      
     e( 33 - 34) =     12.31017  eV     2   --> G_5   L_4      
     e( 33 - 34) =     12.31017  eV     2   --> G_6   L_5      
     e( 35 - 36) =     15.74429  eV     2   --> G_4   L_6      

 **************************************************************************

 **************************************************************************

                    xk=(   0.37500,   0.37500,   0.37500  )

     Band symmetry, C_3v (3m)   double point group:

     e(  1 -  2) =    -16.59504  eV     2   --> G_5   L_4      
     e(  1 -  2) =    -16.59504  eV     2   --> G_6   L_5      
     e(  3 -  4) =    -16.57001  eV     2   --> G_4   L_6      
     e(  5 -  6) =    -16.54408  eV     2   --> G_4   L_6      
     e(  7 -  8) =    -16.51720  eV     2   --> G_5   L_4      
     e(  7 -  8) =    -16.51720  eV     2   --> G_6   L_5      
     e(  9 - 10) =    -16.04624  eV     2   --> G_4   L_6      
     e( 11 - 12) =    -16.00078  eV     2   --> G_4   L_6      
     e( 13 - 14) =    -15.97078  eV     2   --> G_5   L_4      
     e( 13 - 14) =    -15.97078  eV     2   --> G_6   L_5      
     e( 15 - 16) =    -15.87847  eV     2   --> G_5   L_4      
     e( 15 - 16) =    -15.87847  eV     2   --> G_6   L_5      
     e( 17 - 18) =    -15.87408  eV     2   --> G_4   L_6      
     e( 19 - 20) =    -15.85620  eV     2   --> G_4   L_6      
     e( 21 - 22) =     -2.72989  eV     2   --> G_4   L_6      
     e( 23 - 24) =      1.82074  eV     2   --> G_4   L_6      
     e( 25 - 26) =      7.12712  eV     2   --> G_4   L_6      
     e( 27 - 28) =      7.31327  eV     2   --> G_5   L_4      
     e( 27 - 28) =      7.31327  eV     2   --> G_6   L_5      
     e( 29 - 30) =      8.80595  eV     2   --> G_4   L_6      
     e( 31 - 32) =     12.21488  eV     2   --> G_4   L_6      
     e( 33 - 34) =     12.32027  eV     2   --> G_5   L_4      
     e( 33 - 34) =     12.32027  eV     2   --> G_6   L_5      
     e( 35 - 36) =     15.76453  eV     2   --> G_4   L_6      

 **************************************************************************

 **************************************************************************

                    xk=(   0.35000,   0.35000,   0.35000  )

     Band symmetry, C_3v (3m)   double point group:

     e(  1 -  2) =    -16.59477  eV     2   --> G_5   L_4      
     e(  1 -  2) =    -16.59477  eV     2   --> G_6   L_5      
     e(  3 -  4) =    -16.57206  eV     2   --> G_4   L_6      
     e(  5 -  6) =    -16.54239  eV     2   --> G_4   L_6      
     e(  7 -  8) =    -16.51789  eV     2   --> G_5   L_4      
     e(  7 -  8) =    -16.51789  eV     2   --> G_6   L_5      
     e(  9 - 10) =    -16.05020  eV     2   --> G_4   L_6      
     e( 11 - 12) =    -15.99718  eV     2   --> G_4   L_6      
     e( 13 - 14) =    -15.96971  eV     2   --> G_5   L_4      
     e( 13 - 14) =    -15.96971  eV     2   --> G_6   L_5      
     e( 15 - 16) =    -15.88003  eV     2   --> G_5   L_4      
     e( 15 - 16) =    -15.88003  eV     2   --> G_6   L_5      
     e( 17 - 18) =    -15.87602  eV     2   --> G_4   L_6      
     e( 19 - 20) =    -15.85451  eV     2   --> G_4   L_6      
     e( 21 - 22) =     -2.89909  eV     2   --> G_4   L_6      
     e( 23 - 24) =      2.16005  eV     2   --> G_4   L_6      
     e( 25 - 26) =      7.18564  eV     2   --> G_4   L_6      
     e( 27 - 28) =      7.37186  eV     2   --> G_5   L_4      
     e( 27 - 28) =      7.37186  eV     2   --> G_6   L_5      
     e( 29 - 30) =      8.86166  eV     2   --> G_4   L_6      
     e( 31 - 32) =     12.21388  eV     2   --> G_4   L_6      
     e( 33 - 34) =     12.32467  eV     2   --> G_5   L_4      
     e( 33 - 34) =     12.32467  eV     2   --> G_6   L_5      
     e( 35 - 36) =     15.69675  eV     2   --> G_4   L_6      

 **************************************************************************

 **************************************************************************

                    xk=(   0.32500,   0.32500,   0.32500  )

     Band symmetry, C_3v (3m)   double point group:

     e(  1 -  2) =    -16.59444  eV     2   --> G_5   L_4      
     e(  1 -  2) =    -16.59444  eV     2   --> G_6   L_5      
     e(  3 -  4) =    -16.57404  eV     2   --> G_4   L_6      
     e(  5 -  6) =    -16.54078  eV     2   --> G_4   L_6      
     e(  7 -  8) =    -16.51855  eV     2   --> G_5   L_4      
     e(  7 -  8) =    -16.51855  eV     2   --> G_6   L_5      
     e(  9 - 10) =    -16.05419  eV     2   --> G_4   L_6      
     e( 11 - 12) =    -15.99344  eV     2   --> G_4   L_6      
     e( 13 - 14) =    -15.96846  eV     2   --> G_5   L_4      
     e( 13 - 14) =    -15.96846  eV     2   --> G_6   L_5      
     e( 15 - 16) =    -15.88178  eV     2   --> G_5   L_4      
     e( 15 - 16) =    -15.88178  eV     2   --> G_6   L_5      
     e( 17 - 18) =    -15.87801  eV     2   --> G_4   L_6      
     e( 19 - 20) =    -15.85281  eV     2   --> G_4   L_6      
     e( 21 - 22) =     -3.06843  eV     2   --> G_4   L_6      
     e( 23 - 24) =      2.52950  eV     2   --> G_4   L_6      
     e( 25 - 26) =      7.25412  eV     2   --> G_4   L_6      
     e( 27 - 28) =      7.44046  eV     2   --> G_5   L_4      
     e( 27 - 28) =      7.44046  eV     2   --> G_6   L_5      
     e( 29 - 30) =      8.92648  eV     2   --> G_4   L_6      
     e( 31 - 32) =     12.20181  eV     2   --> G_4   L_6      
     e( 33 - 34) =     12.31870  eV     2   --> G_5   L_4      
     e( 33 - 34) =     12.31870  eV     2   --> G_6   L_5      
     e( 35 - 36) =     15.43319  eV     2   --> G_4   L_6      

 **************************************************************************

 **************************************************************************

                    xk=(   0.30000,   0.30000,   0.30000  )

     Band symmetry, C_3v (3m)   double point group:

     e(  1 -  2) =    -16.59383  eV     2   --> G_5   L_4      
     e(  1 -  2) =    -16.59383  eV     2   --> G_6   L_5      
     e(  3 -  4) =    -16.57580  eV     2   --> G_4   L_6      
     e(  5 -  6) =    -16.53902  eV     2   --> G_4   L_6      
     e(  7 -  8) =    -16.51925  eV     2   --> G_5   L_4      
     e(  7 -  8) =    -16.51925  eV     2   --> G_6   L_5      
     e(  9 - 10) =    -16.05811  eV     2   --> G_4   L_6      
     e( 11 - 12) =    -15.98934  eV     2   --> G_4   L_6      
     e( 13 - 14) =    -15.96683  eV     2   --> G_5   L_4      
     e( 13 - 14) =    -15.96683  eV     2   --> G_6   L_5      
     e( 15 - 16) =    -15.88354  eV     2   --> G_5   L_4      
     e( 15 - 16) =    -15.88354  eV     2   --> G_6   L_5      
     e( 17 - 18) =    -15.87998  eV     2   --> G_4   L_6      
     e( 19 - 20) =    -15.85101  eV     2   --> G_4   L_6      
     e( 21 - 22) =     -3.23346  eV     2   --> G_4   L_6      
     e( 23 - 24) =      2.92409  eV     2   --> G_4   L_6      
     e( 25 - 26) =      7.33211  eV     2   --> G_4   L_6      
     e( 27 - 28) =      7.51864  eV     2   --> G_5   L_4      
     e( 27 - 28) =      7.51864  eV     2   --> G_6   L_5      
     e( 29 - 30) =      8.99968  eV     2   --> G_4   L_6      
     e( 31 - 32) =     12.17392  eV     2   --> G_4   L_6      
     e( 33 - 34) =     12.29728  eV     2   --> G_5   L_4      
     e( 33 - 34) =     12.29728  eV     2   --> G_6   L_5      
     e( 35 - 36) =     15.03228  eV     2   --> G_4   L_6      

 **************************************************************************

 **************************************************************************

                    xk=(   0.27500,   0.27500,   0.27500  )

     Band symmetry, C_3v (3m)   double point group:

     e(  1 -  2) =    -16.59337  eV     2   --> G_5   L_4      
     e(  1 -  2) =    -16.59337  eV     2   --> G_6   L_5      
     e(  3 -  4) =    -16.57762  eV     2   --> G_4   L_6      
     e(  5 -  6) =    -16.53722  eV     2   --> G_4   L_6      
     e(  7 -  8) =    -16.52001  eV     2   --> G_5   L_4      
     e(  7 -  8) =    -16.52001  eV     2   --> G_6   L_5      
     e(  9 - 10) =    -16.06210  eV     2   --> G_4   L_6      
     e( 11 - 12) =    -15.98517  eV     2   --> G_4   L_6      
     e( 13 - 14) =    -15.96512  eV     2   --> G_5   L_4      
     e( 13 - 14) =    -15.96512  eV     2   --> G_6   L_5      
     e( 15 - 16) =    -15.88559  eV     2   --> G_5   L_4      
     e( 15 - 16) =    -15.88559  eV     2   --> G_6   L_5      
     e( 17 - 18) =    -15.88212  eV     2   --> G_4   L_6      
     e( 19 - 20) =    -15.84918  eV     2   --> G_4   L_6      
     e( 21 - 22) =     -3.39105  eV     2   --> G_4   L_6      
     e( 23 - 24) =      3.34007  eV     2   --> G_4   L_6      
     e( 25 - 26) =      7.41904  eV     2   --> G_4   L_6      
     e( 27 - 28) =      7.60583  eV     2   --> G_5   L_4      
     e( 27 - 28) =      7.60583  eV     2   --> G_6   L_5      
     e( 29 - 30) =      9.08018  eV     2   --> G_4   L_6      
     e( 31 - 32) =     12.12593  eV     2   --> G_4   L_6      
     e( 33 - 34) =     12.25564  eV     2   --> G_5   L_4      
     e( 33 - 34) =     12.25564  eV     2   --> G_6   L_5      
     e( 35 - 36) =     14.58928  eV     2   --> G_4   L_6      

 **************************************************************************

 **************************************************************************

                    xk=(   0.25000,   0.25000,   0.25000  )

     Band symmetry, C_3v (3m)   double point group:

     e(  1 -  2) =    -16.59298  eV     2   --> G_5   L_4      
     e(  1 -  2) =    -16.59298  eV     2   --> G_6   L_5      
     e(  3 -  4) =    -16.57960  eV     2   --> G_4   L_6      
     e(  5 -  6) =    -16.53567  eV     2   --> G_4   L_6      
     e(  7 -  8) =    -16.52094  eV     2   --> G_5   L_4      
     e(  7 -  8) =    -16.52094  eV     2   --> G_6   L_5      
     e(  9 - 10) =    -16.06618  eV     2   --> G_4   L_6      
     e( 11 - 12) =    -15.98105  eV     2   --> G_4   L_6      
     e( 13 - 14) =    -15.96347  eV     2   --> G_5   L_4      
     e( 13 - 14) =    -15.96347  eV     2   --> G_6   L_5      
     e( 15 - 16) =    -15.88802  eV     2   --> G_5   L_4      
     e( 15 - 16) =    -15.88802  eV     2   --> G_6   L_5      
     e( 17 - 18) =    -15.88457  eV     2   --> G_4   L_6      
     e( 19 - 20) =    -15.84754  eV     2   --> G_4   L_6      
     e( 21 - 22) =     -3.53898  eV     2   --> G_4   L_6      
     e( 23 - 24) =      3.77442  eV     2   --> G_4   L_6      
     e( 25 - 26) =      7.51411  eV     2   --> G_4   L_6      
     e( 27 - 28) =      7.70129  eV     2   --> G_5   L_4      
     e( 27 - 28) =      7.70129  eV     2   --> G_6   L_5      
     e( 29 - 30) =      9.16635  eV     2   --> G_4   L_6      
     e( 31 - 32) =     12.05494  eV     2   --> G_4   L_6      
     e( 33 - 34) =     12.19034  eV     2   --> G_5   L_4      
     e( 33 - 34) =     12.19034  eV     2   --> G_6   L_5      
     e( 35 - 36) =     14.13677  eV     2   --> G_4   L_6      

 **************************************************************************

 **************************************************************************

                    xk=(   0.22500,   0.22500,   0.22500  )

     Band symmetry, C_3v (3m)   double point group:

     e(  1 -  2) =    -16.59241  eV     2   --> G_5   L_4      
     e(  1 -  2) =    -16.59241  eV     2   --> G_6   L_5      
     e(  3 -  4) =    -16.58097  eV     2   --> G_4   L_6      
     e(  5 -  6) =    -16.53407  eV     2   --> G_4   L_6      
     e(  7 -  8) =    -16.52168  eV     2   --> G_5   L_4      
     e(  7 -  8) =    -16.52168  eV     2   --> G_6   L_5      
     e(  9 - 10) =    -16.06984  eV     2   --> G_4   L_6      
     e( 11 - 12) =    -15.97652  eV     2   --> G_4   L_6      
     e( 13 - 14) =    -15.96157  eV     2   --> G_5   L_4      
     e( 13 - 14) =    -15.96157  eV     2   --> G_6   L_5      
     e( 15 - 16) =    -15.89019  eV     2   --> G_5   L_4      
     e( 15 - 16) =    -15.89019  eV     2   --> G_6   L_5      
     e( 17 - 18) =    -15.88696  eV     2   --> G_4   L_6      
     e( 19 - 20) =    -15.84583  eV     2   --> G_4   L_6      
     e( 21 - 22) =     -3.67567  eV     2   --> G_4   L_6      
     e( 23 - 24) =      4.22460  eV     2   --> G_4   L_6      
     e( 25 - 26) =      7.61629  eV     2   --> G_4   L_6      
     e( 27 - 28) =      7.80397  eV     2   --> G_5   L_4      
     e( 27 - 28) =      7.80397  eV     2   --> G_6   L_5      
     e( 29 - 30) =      9.25582  eV     2   --> G_4   L_6      
     e( 31 - 32) =     11.96030  eV     2   --> G_4   L_6      
     e( 33 - 34) =     12.10022  eV     2   --> G_5   L_4      
     e( 33 - 34) =     12.10022  eV     2   --> G_6   L_5      
     e( 35 - 36) =     13.68510  eV     2   --> G_4   L_6      

 **************************************************************************

 **************************************************************************

                    xk=(   0.20000,   0.20000,   0.20000  )

     Band symmetry, C_3v (3m)   double point group:

     e(  1 -  2) =    -16.59197  eV     2   --> G_5   L_4      
     e(  1 -  2) =    -16.59197  eV     2   --> G_6   L_5      
     e(  3 -  4) =    -16.58270  eV     2   --> G_4   L_6      
     e(  5 -  6) =    -16.53277  eV     2   --> G_4   L_6      
     e(  7 -  8) =    -16.52258  eV     2   --> G_5   L_4      
     e(  7 -  8) =    -16.52258  eV     2   --> G_6   L_5      
     e(  9 - 10) =    -16.07361  eV     2   --> G_4   L_6      
     e( 11 - 12) =    -15.97223  eV     2   --> G_4   L_6      
     e( 13 - 14) =    -15.95981  eV     2   --> G_5   L_4      
     e( 13 - 14) =    -15.95981  eV     2   --> G_6   L_5      
     e( 15 - 16) =    -15.89256  eV     2   --> G_5   L_4      
     e( 15 - 16) =    -15.89256  eV     2   --> G_6   L_5      
     e( 17 - 18) =    -15.88960  eV     2   --> G_4   L_6      
     e( 19 - 20) =    -15.84438  eV     2   --> G_4   L_6      
     e( 21 - 22) =     -3.79998  eV     2   --> G_4   L_6      
     e( 23 - 24) =      4.68825  eV     2   --> G_4   L_6      
     e( 25 - 26) =      7.72417  eV     2   --> G_4   L_6      
     e( 27 - 28) =      7.91250  eV     2   --> G_5   L_4      
     e( 27 - 28) =      7.91250  eV     2   --> G_6   L_5      
     e( 29 - 30) =      9.34490  eV     2   --> G_4   L_6      
     e( 31 - 32) =     11.84407  eV     2   --> G_4   L_6      
     e( 33 - 34) =     11.98700  eV     2   --> G_5   L_4      
     e( 33 - 34) =     11.98700  eV     2   --> G_6   L_5      
     e( 35 - 36) =     13.23892  eV     2   --> G_4   L_6      

 **************************************************************************

 **************************************************************************

                    xk=(   0.17500,   0.17500,   0.17500  )

     Band symmetry, C_3v (3m)   double point group:

     e(  1 -  2) =    -16.59141  eV     2   --> G_5   L_4      
     e(  1 -  2) =    -16.59141  eV     2   --> G_6   L_5      
     e(  3 -  4) =    -16.58392  eV     2   --> G_4   L_6      
     e(  5 -  6) =    -16.53147  eV     2   --> G_4   L_6      
     e(  7 -  8) =    -16.52345  eV     2   --> G_5   L_4      
     e(  7 -  8) =    -16.52345  eV     2   --> G_6   L_5      
     e(  9 - 10) =    -16.07687  eV     2   --> G_4   L_6      
     e( 11 - 12) =    -15.96797  eV     2   --> G_4   L_6      
     e( 13 - 14) =    -15.95783  eV     2   --> G_5   L_4      
     e( 13 - 14) =    -15.95783  eV     2   --> G_6   L_5      
     e( 15 - 16) =    -15.89490  eV     2   --> G_5   L_4      
     e( 15 - 16) =    -15.89490  eV     2   --> G_6   L_5      
     e( 17 - 18) =    -15.89217  eV     2   --> G_4   L_6      
     e( 19 - 20) =    -15.84299  eV     2   --> G_4   L_6      
     e( 21 - 22) =     -3.91104  eV     2   --> G_4   L_6      
     e( 23 - 24) =      5.16304  eV     2   --> G_4   L_6      
     e( 25 - 26) =      7.83587  eV     2   --> G_4   L_6      
     e( 27 - 28) =      8.02501  eV     2   --> G_5   L_4      
     e( 27 - 28) =      8.02501  eV     2   --> G_6   L_5      
     e( 29 - 30) =      9.42792  eV     2   --> G_4   L_6      
     e( 31 - 32) =     11.71086  eV     2   --> G_4   L_6      
     e( 33 - 34) =     11.85529  eV     2   --> G_5   L_4      
     e( 33 - 34) =     11.85529  eV     2   --> G_6   L_5      
     e( 35 - 36) =     12.80230  eV     2   --> G_4   L_6      

 **************************************************************************

 **************************************************************************

                    xk=(   0.15000,   0.15000,   0.15000  )

     Band symmetry, C_3v (3m)   double point group:

     e(  1 -  2) =    -16.59075  eV     2   --> G_5   L_4      
     e(  1 -  2) =    -16.59075  eV     2   --> G_6   L_5      
     e(  3 -  4) =    -16.58518  eV     2   --> G_4   L_6      
     e(  5 -  6) =    -16.53030  eV     2   --> G_4   L_6      
     e(  7 -  8) =    -16.52414  eV     2   --> G_5   L_4      
     e(  7 -  8) =    -16.52414  eV     2   --> G_6   L_5      
     e(  9 - 10) =    -16.07983  eV     2   --> G_4   L_6      
     e( 11 - 12) =    -15.96374  eV     2   --> G_4   L_6      
     e( 13 - 14) =    -15.95588  eV     2   --> G_5   L_4      
     e( 13 - 14) =    -15.95588  eV     2   --> G_6   L_5      
     e( 15 - 16) =    -15.89727  eV     2   --> G_5   L_4      
     e( 15 - 16) =    -15.89727  eV     2   --> G_6   L_5      
     e( 17 - 18) =    -15.89474  eV     2   --> G_4   L_6      
     e( 19 - 20) =    -15.84179  eV     2   --> G_4   L_6      
     e( 21 - 22) =     -4.00825  eV     2   --> G_4   L_6      
     e( 23 - 24) =      5.64647  eV     2   --> G_4   L_6      
     e( 25 - 26) =      7.94885  eV     2   --> G_4   L_6      
     e( 27 - 28) =      8.13895  eV     2   --> G_5   L_4      
     e( 27 - 28) =      8.13895  eV     2   --> G_6   L_5      
     e( 29 - 30) =      9.49577  eV     2   --> G_4   L_6      
     e( 31 - 32) =     11.56716  eV     2   --> G_4   L_6      
     e( 33 - 34) =     11.71191  eV     2   --> G_5   L_4      
     e( 33 - 34) =     11.71191  eV     2   --> G_6   L_5      
     e( 35 - 36) =     12.38138  eV     2   --> G_4   L_6      

 **************************************************************************

 **************************************************************************

                    xk=(   0.12500,   0.12500,   0.12500  )

     Band symmetry, C_3v (3m)   double point group:

     e(  1 -  2) =    -16.59026  eV     2   --> G_5   L_4      
     e(  1 -  2) =    -16.59026  eV     2   --> G_6   L_5      
     e(  3 -  4) =    -16.58644  eV     2   --> G_4   L_6      
     e(  5 -  6) =    -16.52952  eV     2   --> G_4   L_6      
     e(  7 -  8) =    -16.52496  eV     2   --> G_5   L_4      
     e(  7 -  8) =    -16.52496  eV     2   --> G_6   L_5      
     e(  9 - 10) =    -16.08264  eV     2   --> G_4   L_6      
     e( 11 - 12) =    -15.95998  eV     2   --> G_4   L_6      
     e( 13 - 14) =    -15.95409  eV     2   --> G_5   L_4      
     e( 13 - 14) =    -15.95409  eV     2   --> G_6   L_5      
     e( 15 - 16) =    -15.89959  eV     2   --> G_5   L_4      
     e( 15 - 16) =    -15.89959  eV     2   --> G_6   L_5      
     e( 17 - 18) =    -15.89743  eV     2   --> G_4   L_6      
     e( 19 - 20) =    -15.84088  eV     2   --> G_4   L_6      
     e( 21 - 22) =     -4.09113  eV     2   --> G_4   L_6      
     e( 23 - 24) =      6.13563  eV     2   --> G_4   L_6      
     e( 25 - 26) =      8.05975  eV     2   --> G_4   L_6      
     e( 27 - 28) =      8.25093  eV     2   --> G_5   L_4      
     e( 27 - 28) =      8.25093  eV     2   --> G_6   L_5      
     e( 29 - 30) =      9.53385  eV     2   --> G_4   L_6      
     e( 31 - 32) =     11.42023  eV     2   --> G_4   L_6      
     e( 33 - 34) =     11.56520  eV     2   --> G_5   L_4      
     e( 33 - 34) =     11.56520  eV     2   --> G_6   L_5      
     e( 35 - 36) =     11.98760  eV     2   --> G_4   L_6      

 **************************************************************************

 **************************************************************************

                    xk=(   0.10000,   0.10000,   0.10000  )

     Band symmetry, C_3v (3m)   double point group:

     e(  1 -  2) =    -16.58982  eV     2   --> G_5   L_4      
     e(  1 -  2) =    -16.58982  eV     2   --> G_6   L_5      
     e(  3 -  4) =    -16.58736  eV     2   --> G_4   L_6      
     e(  5 -  6) =    -16.52851  eV     2   --> G_4   L_6      
     e(  7 -  8) =    -16.52552  eV     2   --> G_5   L_4      
     e(  7 -  8) =    -16.52552  eV     2   --> G_6   L_5      
     e(  9 - 10) =    -16.08491  eV     2   --> G_4   L_6      
     e( 11 - 12) =    -15.95628  eV     2   --> G_4   L_6      
     e( 13 - 14) =    -15.95224  eV     2   --> G_5   L_4      
     e( 13 - 14) =    -15.95224  eV     2   --> G_6   L_5      
     e( 15 - 16) =    -15.90160  eV     2   --> G_5   L_4      
     e( 15 - 16) =    -15.90160  eV     2   --> G_6   L_5      
     e( 17 - 18) =    -15.89997  eV     2   --> G_4   L_6      
     e( 19 - 20) =    -15.83996  eV     2   --> G_4   L_6      
     e( 21 - 22) =     -4.15934  eV     2   --> G_4   L_6      
     e( 23 - 24) =      6.62695  eV     2   --> G_4   L_6      
     e( 25 - 26) =      8.16419  eV     2   --> G_4   L_6      
     e( 27 - 28) =      8.35643  eV     2   --> G_5   L_4      
     e( 27 - 28) =      8.35643  eV     2   --> G_6   L_5      
     e( 29 - 30) =      9.51941  eV     2   --> G_4   L_6      
     e( 31 - 32) =     11.27635  eV     2   --> G_4   L_6      
     e( 33 - 34) =     11.42443  eV     2   --> G_5   L_4      
     e( 33 - 34) =     11.42443  eV     2   --> G_6   L_5      
     e( 35 - 36) =     11.64200  eV     2   --> G_4   L_6      

 **************************************************************************

 **************************************************************************

                    xk=(   0.07500,   0.07500,   0.07500  )

     Band symmetry, C_3v (3m)   double point group:

     e(  1 -  2) =    -16.58958  eV     2   --> G_5   L_4      
     e(  1 -  2) =    -16.58958  eV     2   --> G_6   L_5      
     e(  3 -  4) =    -16.58812  eV     2   --> G_4   L_6      
     e(  5 -  6) =    -16.52774  eV     2   --> G_4   L_6      
     e(  7 -  8) =    -16.52604  eV     2   --> G_5   L_4      
     e(  7 -  8) =    -16.52604  eV     2   --> G_6   L_5      
     e(  9 - 10) =    -16.08686  eV     2   --> G_4   L_6      
     e( 11 - 12) =    -15.95313  eV     2   --> G_4   L_6      
     e( 13 - 14) =    -15.95061  eV     2   --> G_5   L_4      
     e( 13 - 14) =    -15.95061  eV     2   --> G_6   L_5      
     e( 15 - 16) =    -15.90335  eV     2   --> G_5   L_4      
     e( 15 - 16) =    -15.90335  eV     2   --> G_6   L_5      
     e( 17 - 18) =    -15.90227  eV     2   --> G_4   L_6      
     e( 19 - 20) =    -15.83921  eV     2   --> G_4   L_6      
     e( 21 - 22) =     -4.21262  eV     2   --> G_4   L_6      
     e( 23 - 24) =      7.11557  eV     2   --> G_4   L_6      
     e( 25 - 26) =      8.25676  eV     2   --> G_4   L_6      
     e( 27 - 28) =      8.44971  eV     2   --> G_5   L_4      
     e( 27 - 28) =      8.44971  eV     2   --> G_6   L_5      
     e( 29 - 30) =      9.42257  eV     2   --> G_4   L_6      
     e( 31 - 32) =     11.13835  eV     2   --> G_4   L_6      
     e( 33 - 34) =     11.29947  eV     2   --> G_5   L_4      
     e( 33 - 34) =     11.29947  eV     2   --> G_6   L_5      
     e( 35 - 36) =     11.37697  eV     2   --> G_4   L_6      

 **************************************************************************

 **************************************************************************

                    xk=(   0.05000,   0.05000,   0.05000  )

     Band symmetry, C_3v (3m)   double point group:

     e(  1 -  2) =    -16.58928  eV     2   --> G_5   L_4      
     e(  1 -  2) =    -16.58928  eV     2   --> G_6   L_5      
     e(  3 -  4) =    -16.58853  eV     2   --> G_4   L_6      
     e(  5 -  6) =    -16.52717  eV     2   --> G_4   L_6      
     e(  7 -  8) =    -16.52642  eV     2   --> G_5   L_4      
     e(  7 -  8) =    -16.52642  eV     2   --> G_6   L_5      
     e(  9 - 10) =    -16.08813  eV     2   --> G_4   L_6      
     e( 11 - 12) =    -15.95056  eV     2   --> G_4   L_6      
     e( 13 - 14) =    -15.94940  eV     2   --> G_5   L_4      
     e( 13 - 14) =    -15.94940  eV     2   --> G_6   L_5      
     e( 15 - 16) =    -15.90458  eV     2   --> G_5   L_4      
     e( 15 - 16) =    -15.90458  eV     2   --> G_6   L_5      
     e( 17 - 18) =    -15.90410  eV     2   --> G_4   L_6      
     e( 19 - 20) =    -15.83864  eV     2   --> G_4   L_6      
     e( 21 - 22) =     -4.25080  eV     2   --> G_4   L_6      
     e( 23 - 24) =      7.59386  eV     2   --> G_4   L_6      
     e( 25 - 26) =      8.33183  eV     2   --> G_4   L_6      
     e( 27 - 28) =      8.52399  eV     2   --> G_5   L_4      
     e( 27 - 28) =      8.52399  eV     2   --> G_6   L_5      
     e( 29 - 30) =      9.22015  eV     2   --> G_4   L_6      
     e( 31 - 32) =     11.01382  eV     2   --> G_4   L_6      
     e( 33 - 34) =     11.20029  eV     2   --> G_5   L_4      
     e( 33 - 34) =     11.20029  eV     2   --> G_6   L_5      
     e( 35 - 36) =     11.21540  eV     2   --> G_4   L_6      

 **************************************************************************

 **************************************************************************

                    xk=(   0.02500,   0.02500,   0.02500  )

     Band symmetry, C_3v (3m)   double point group:

     e(  1 -  2) =    -16.58922  eV     2   --> G_5   L_4      
     e(  1 -  2) =    -16.58922  eV     2   --> G_6   L_5      
     e(  3 -  4) =    -16.58893  eV     2   --> G_4   L_6      
     e(  5 -  6) =    -16.52687  eV     2   --> G_4   L_6      
     e(  7 -  8) =    -16.52668  eV     2   --> G_5   L_4      
     e(  7 -  8) =    -16.52668  eV     2   --> G_6   L_5      
     e(  9 - 10) =    -16.08902  eV     2   --> G_4   L_6      
     e( 11 - 12) =    -15.94894  eV     2   --> G_4   L_6      
     e( 13 - 14) =    -15.94864  eV     2   --> G_5   L_4      
     e( 13 - 14) =    -15.94864  eV     2   --> G_6   L_5      
     e( 15 - 16) =    -15.90560  eV     2   --> G_5   L_4      
     e( 15 - 16) =    -15.90560  eV     2   --> G_6   L_5      
     e( 17 - 18) =    -15.90545  eV     2   --> G_4   L_6      
     e( 19 - 20) =    -15.83833  eV     2   --> G_4   L_6      
     e( 21 - 22) =     -4.27376  eV     2   --> G_4   L_6      
     e( 23 - 24) =      8.04290  eV     2   --> G_4   L_6      
     e( 25 - 26) =      8.39005  eV     2   --> G_4   L_6      
     e( 27 - 28) =      8.57229  eV     2   --> G_5   L_4      
     e( 27 - 28) =      8.57229  eV     2   --> G_6   L_5      
     e( 29 - 30) =      8.91767  eV     2   --> G_4   L_6      
     e( 31 - 32) =     10.92950  eV     2   --> G_4   L_6      
     e( 33 - 34) =     11.13616  eV     2   --> G_5   L_4      
     e( 33 - 34) =     11.13616  eV     2   --> G_6   L_5      
     e( 35 - 36) =     11.13707  eV     2   --> G_4   L_6      

 **************************************************************************

 **************************************************************************

                    xk=(   0.00000,   0.00000,   0.00000  )

     double point group O_h (m-3m) 
     there are 16 classes and  6 irreducible representations
     the character table:

       E     -E    8C3   -8C3   3C2  6C4   -6C4   6C2' i     -i    8S6   -8S6 
                               -3C2              -6C2'                        
G_6+   2.00 -2.00  1.00 -1.00  0.00  1.41 -1.41  0.00  2.00 -2.00  1.00 -1.00
G_7+   2.00 -2.00  1.00 -1.00  0.00 -1.41  1.41  0.00  2.00 -2.00  1.00 -1.00
G_8+   4.00 -4.00 -1.00  1.00  0.00  0.00  0.00  0.00  4.00 -4.00 -1.00  1.00
G_6-   2.00 -2.00  1.00 -1.00  0.00  1.41 -1.41  0.00 -2.00  2.00 -1.00  1.00
G_7-   2.00 -2.00  1.00 -1.00  0.00 -1.41  1.41  0.00 -2.00  2.00 -1.00  1.00
G_8-   4.00 -4.00 -1.00  1.00  0.00  0.00  0.00  0.00 -4.00  4.00  1.00 -1.00

        3s_h 6S4   -6S4   6s_d
       -3s_h             -6s_d
G_6+   0.00  1.41 -1.41  0.00
G_7+   0.00 -1.41  1.41  0.00
G_8+   0.00  0.00  0.00  0.00
G_6-   0.00 -1.41  1.41  0.00
G_7-   0.00  1.41 -1.41  0.00
G_8-   0.00  0.00  0.00  0.00

     the symmetry operations in each class and the name of the first element:

     E             1
                                                                 
     -E           -1
                                                                 
     8C3          17   19   20   18   24   21   22   23
                                                                 
     -8C3        -17  -19  -20  -18  -24  -21  -22  -23
                                                                 
      3C2 -3C2     2   -2    4   -4    3   -3
                                                                 
     6C4           7    8   15   16   12   11
                                                                 
     -6C4         -7   -8  -15  -16  -12  -11
                                                                 
      6C2'-6C2'    5   -5   -6    6   14  -13  -14   13   10   -9  -10    9
                                                                 
     i            25
                                                                 
     -i          -25
                                                                 
     8S6          41   43   44   42   48   45   46   47
                                                                 
     -8S6        -41  -43  -44  -42  -48  -45  -46  -47
                                                                 
      3s_h-3s_h   26  -26   28  -28   27  -27
                                                                 
     6S4          31   32   39   40   36   35
                                                                 
     -6S4        -31  -32  -39  -40  -36  -35
                                                                 
      6s_d-6s_d   29  -29  -30   30   38  -37  -38   37   34  -33  -34   33
                                                                 

     Band symmetry, O_h (m-3m)  double point group:

     e(  1 -  4) =    -16.58917  eV     4   --> G_8+           
     e(  5 -  8) =    -16.52677  eV     4   --> G_8-           
     e(  9 - 10) =    -16.08937  eV     2   --> G_7+           
     e( 11 - 14) =    -15.94838  eV     4   --> G_8-           
     e( 15 - 18) =    -15.90593  eV     4   --> G_8+           
     e( 19 - 20) =    -15.83822  eV     2   --> G_6-           
     e( 21 - 22) =     -4.28142  eV     2   --> G_6+           
     e( 23 - 24) =      8.29489  eV     2   --> G_7+           
     e( 25 - 26) =      8.53292  eV     2   --> G_7-           
     e( 27 - 30) =      8.58911  eV     4   --> G_8+           
     e( 31 - 32) =     10.90100  eV     2   --> G_6-           
     e( 33 - 36) =     11.11393  eV     4   --> G_8-           

 **************************************************************************

 **************************************************************************

                    xk=(   0.00000,   0.05000,   0.00000  )

     double point group C_4v (4mm) 
     there are  7 classes and  2 irreducible representations
     the character table:

       E     -E    2C4   -2C4   C2    2s_v  2s_d
                               -C2   -2s_v -2s_d
G_6    2.00 -2.00  1.41 -1.41  0.00  0.00  0.00
G_7    2.00 -2.00 -1.41  1.41  0.00  0.00  0.00

     the symmetry operations in each class and the name of the first element:

     E             1
                                                                 
     -E           -1
                                                                 
     2C4           3    4
                                                                 
     -2C4         -3   -4
                                                                 
      C2  -C2      2   -2
                                                                 
      2s_v-2s_v    5   -5    6   -6
                                                                 
      2s_d-2s_d    7   -7   -8    8
                                                                 

     Band symmetry, C_4v (4mm)  double point group:

     e(  1 -  4) =    -16.58897  eV     4   --> G_6   D_6      
     e(  1 -  4) =    -16.58897  eV     4   --> G_7   D_7      
     e(  5 -  6) =    -16.52690  eV     2   --> G_7   D_7      
     e(  7 -  8) =    -16.52665  eV     2   --> G_6   D_6      
     e(  9 - 10) =    -16.08879  eV     2   --> G_7   D_7      
     e( 11 - 12) =    -15.94933  eV     2   --> G_6   D_6      
     e( 13 - 14) =    -15.94851  eV     2   --> G_7   D_7      
     e( 15 - 16) =    -15.90558  eV     2   --> G_7   D_7      
     e( 17 - 18) =    -15.90507  eV     2   --> G_6   D_6      
     e( 19 - 20) =    -15.83836  eV     2   --> G_6   D_6      
     e( 21 - 22) =     -4.27120  eV     2   --> G_6   D_6      
     e( 23 - 24) =      8.00134  eV     2   --> G_7   D_7      
     e( 25 - 26) =      8.35834  eV     2   --> G_7   D_7      
     e( 27 - 28) =      8.53276  eV     2   --> G_6   D_6      
     e( 29 - 30) =      9.00606  eV     2   --> G_7   D_7      
     e( 31 - 32) =     10.92537  eV     2   --> G_6   D_6      
     e( 33 - 34) =     11.12435  eV     2   --> G_6   D_6      
     e( 35 - 36) =     11.17463  eV     2   --> G_7   D_7      

 **************************************************************************

 **************************************************************************

                    xk=(   0.00000,   0.10000,   0.00000  )

     Band symmetry, C_4v (4mm)  double point group:

     e(  1 -  2) =    -16.58902  eV     2   --> G_6   D_6      
     e(  3 -  4) =    -16.58851  eV     2   --> G_7   D_7      
     e(  5 -  6) =    -16.52730  eV     2   --> G_7   D_7      
     e(  7 -  8) =    -16.52630  eV     2   --> G_6   D_6      
     e(  9 - 10) =    -16.08760  eV     2   --> G_7   D_7      
     e( 11 - 12) =    -15.95200  eV     2   --> G_6   D_6      
     e( 13 - 14) =    -15.94892  eV     2   --> G_7   D_7      
     e( 15 - 16) =    -15.90475  eV     2   --> G_7   D_7      
     e( 17 - 18) =    -15.90312  eV     2   --> G_6   D_6      
     e( 19 - 20) =    -15.83877  eV     2   --> G_6   D_6      
     e( 21 - 22) =     -4.24057  eV     2   --> G_6   D_6      
     e( 23 - 24) =      7.53418  eV     2   --> G_7   D_7      
     e( 25 - 26) =      8.21811  eV     2   --> G_7   D_7      
     e( 27 - 28) =      8.38085  eV     2   --> G_6   D_6      
     e( 29 - 30) =      9.47019  eV     2   --> G_7   D_7      
     e( 31 - 32) =     10.88617  eV     2   --> G_6   D_6      
     e( 33 - 34) =     11.25689  eV     2   --> G_6   D_6      
     e( 35 - 36) =     11.34492  eV     2   --> G_7   D_7      

 **************************************************************************

 **************************************************************************

                    xk=(   0.00000,   0.15000,   0.00000  )

     Band symmetry, C_4v (4mm)  double point group:

     e(  1 -  2) =    -16.58929  eV     2   --> G_6   D_6      
     e(  3 -  4) =    -16.58805  eV     2   --> G_7   D_7      
     e(  5 -  6) =    -16.52829  eV     2   --> G_7   D_7      
     e(  7 -  8) =    -16.52576  eV     2   --> G_6   D_6      
     e(  9 - 10) =    -16.08588  eV     2   --> G_7   D_7      
     e( 11 - 12) =    -15.95597  eV     2   --> G_6   D_6      
     e( 13 - 14) =    -15.94985  eV     2   --> G_7   D_7      
     e( 15 - 16) =    -15.90347  eV     2   --> G_7   D_7      
     e( 17 - 18) =    -15.90062  eV     2   --> G_6   D_6      
     e( 19 - 20) =    -15.83948  eV     2   --> G_6   D_6      
     e( 21 - 22) =     -4.18957  eV     2   --> G_6   D_6      
     e( 23 - 24) =      7.05686  eV     2   --> G_7   D_7      
     e( 25 - 26) =      8.02663  eV     2   --> G_7   D_7      
     e( 27 - 28) =      8.16793  eV     2   --> G_6   D_6      
     e( 29 - 30) =      9.92446  eV     2   --> G_7   D_7      
     e( 31 - 32) =     10.75568  eV     2   --> G_6   D_6      
     e( 33 - 34) =     11.51962  eV     2   --> G_6   D_6      
     e( 35 - 36) =     11.59898  eV     2   --> G_7   D_7      

 **************************************************************************

 **************************************************************************

                    xk=(   0.00000,   0.20000,   0.00000  )

     Band symmetry, C_4v (4mm)  double point group:

     e(  1 -  2) =    -16.58955  eV     2   --> G_6   D_6      
     e(  3 -  4) =    -16.58744  eV     2   --> G_7   D_7      
     e(  5 -  6) =    -16.52918  eV     2   --> G_7   D_7      
     e(  7 -  8) =    -16.52504  eV     2   --> G_6   D_6      
     e(  9 - 10) =    -16.08350  eV     2   --> G_7   D_7      
     e( 11 - 12) =    -15.96075  eV     2   --> G_6   D_6      
     e( 13 - 14) =    -15.95081  eV     2   --> G_7   D_7      
     e( 15 - 16) =    -15.90166  eV     2   --> G_7   D_7      
     e( 17 - 18) =    -15.89774  eV     2   --> G_6   D_6      
     e( 19 - 20) =    -15.84036  eV     2   --> G_6   D_6      
     e( 21 - 22) =     -4.11825  eV     2   --> G_6   D_6      
     e( 23 - 24) =      6.57929  eV     2   --> G_7   D_7      
     e( 25 - 26) =      7.80271  eV     2   --> G_7   D_7      
     e( 27 - 28) =      7.92352  eV     2   --> G_6   D_6      
     e( 29 - 30) =     10.35576  eV     2   --> G_7   D_7      
     e( 31 - 32) =     10.58427  eV     2   --> G_6   D_6      
     e( 33 - 34) =     11.84967  eV     2   --> G_6   D_6      
     e( 35 - 36) =     11.91173  eV     2   --> G_7   D_7      

 **************************************************************************

 **************************************************************************

                    xk=(   0.00000,   0.25000,   0.00000  )

     Band symmetry, C_4v (4mm)  double point group:

     e(  1 -  2) =    -16.58984  eV     2   --> G_6   D_6      
     e(  3 -  4) =    -16.58669  eV     2   --> G_7   D_7      
     e(  5 -  6) =    -16.53004  eV     2   --> G_7   D_7      
     e(  7 -  8) =    -16.52425  eV     2   --> G_6   D_6      
     e(  9 - 10) =    -16.08045  eV     2   --> G_7   D_7      
     e( 11 - 12) =    -15.96599  eV     2   --> G_6   D_6      
     e( 13 - 14) =    -15.95188  eV     2   --> G_7   D_7      
     e( 15 - 16) =    -15.89945  eV     2   --> G_7   D_7      
     e( 17 - 18) =    -15.89504  eV     2   --> G_6   D_6      
     e( 19 - 20) =    -15.84118  eV     2   --> G_6   D_6      
     e( 21 - 22) =     -4.02671  eV     2   --> G_6   D_6      
     e( 23 - 24) =      6.10368  eV     2   --> G_7   D_7      
     e( 25 - 26) =      7.56347  eV     2   --> G_7   D_7      
     e( 27 - 28) =      7.66675  eV     2   --> G_6   D_6      
     e( 29 - 30) =     10.39449  eV     2   --> G_6   D_6      
     e( 31 - 32) =     10.74730  eV     2   --> G_7   D_7      
     e( 33 - 34) =     12.21999  eV     2   --> G_6   D_6      
     e( 35 - 36) =     12.26474  eV     2   --> G_7   D_7      

 **************************************************************************

 **************************************************************************

                    xk=(   0.00000,   0.30000,   0.00000  )

     Band symmetry, C_4v (4mm)  double point group:

     e(  1 -  2) =    -16.59002  eV     2   --> G_6   D_6      
     e(  3 -  4) =    -16.58573  eV     2   --> G_7   D_7      
     e(  5 -  6) =    -16.53114  eV     2   --> G_7   D_7      
     e(  7 -  8) =    -16.52330  eV     2   --> G_6   D_6      
     e(  9 - 10) =    -16.07674  eV     2   --> G_7   D_7      
     e( 11 - 12) =    -15.97141  eV     2   --> G_6   D_6      
     e( 13 - 14) =    -15.95327  eV     2   --> G_7   D_7      
     e( 15 - 16) =    -15.89665  eV     2   --> G_7   D_7      
     e( 17 - 18) =    -15.89269  eV     2   --> G_6   D_6      
     e( 19 - 20) =    -15.84207  eV     2   --> G_6   D_6      
     e( 21 - 22) =     -3.91506  eV     2   --> G_6   D_6      
     e( 23 - 24) =      5.63097  eV     2   --> G_7   D_7      
     e( 25 - 26) =      7.32044  eV     2   --> G_7   D_7      
     e( 27 - 28) =      7.40911  eV     2   --> G_6   D_6      
     e( 29 - 30) =     10.19958  eV     2   --> G_6   D_6      
     e( 31 - 32) =     11.07441  eV     2   --> G_7   D_7      
     e( 33 - 34) =     12.61679  eV     2   --> G_6   D_6      
     e( 35 - 36) =     12.64562  eV     2   --> G_7   D_7      

 **************************************************************************

 **************************************************************************

                    xk=(   0.00000,   0.35000,   0.00000  )

     Band symmetry, C_4v (4mm)  double point group:

     e(  1 -  2) =    -16.59016  eV     2   --> G_6   D_6      
     e(  3 -  4) =    -16.58463  eV     2   --> G_7   D_7      
     e(  5 -  6) =    -16.53228  eV     2   --> G_7   D_7      
     e(  7 -  8) =    -16.52232  eV     2   --> G_6   D_6      
     e(  9 - 10) =    -16.07243  eV     2   --> G_7   D_7      
     e( 11 - 12) =    -15.97687  eV     2   --> G_6   D_6      
     e( 13 - 14) =    -15.95483  eV     2   --> G_7   D_7      
     e( 15 - 16) =    -15.89344  eV     2   --> G_7   D_7      
     e( 17 - 18) =    -15.89127  eV     2   --> G_6   D_6      
     e( 19 - 20) =    -15.84280  eV     2   --> G_6   D_6      
     e( 21 - 22) =     -3.78346  eV     2   --> G_6   D_6      
     e( 23 - 24) =      5.16168  eV     2   --> G_7   D_7      
     e( 25 - 26) =      7.08112  eV     2   --> G_7   D_7      
     e( 27 - 28) =      7.15758  eV     2   --> G_6   D_6      
     e( 29 - 30) =     10.00834  eV     2   --> G_6   D_6      
     e( 31 - 32) =     11.30479  eV     2   --> G_7   D_7      
     e( 33 - 34) =     13.03190  eV     2   --> G_6   D_6      
     e( 35 - 36) =     13.04604  eV     2   --> G_7   D_7      

 **************************************************************************

 **************************************************************************

                    xk=(   0.00000,   0.40000,   0.00000  )

     Band symmetry, C_4v (4mm)  double point group:

     e(  1 -  2) =    -16.59037  eV     2   --> G_6   D_6      
     e(  3 -  4) =    -16.58353  eV     2   --> G_7   D_7      
     e(  5 -  6) =    -16.53338  eV     2   --> G_7   D_7      
     e(  7 -  8) =    -16.52122  eV     2   --> G_6   D_6      
     e(  9 - 10) =    -16.06779  eV     2   --> G_7   D_7      
     e( 11 - 12) =    -15.98211  eV     2   --> G_6   D_6      
     e( 13 - 14) =    -15.95648  eV     2   --> G_7   D_7      
     e( 15 - 16) =    -15.89070  eV     2   --> G_6   D_6      
     e( 17 - 18) =    -15.88985  eV     2   --> G_7   D_7      
     e( 19 - 20) =    -15.84313  eV     2   --> G_6   D_6      
     e( 21 - 22) =     -3.63207  eV     2   --> G_6   D_6      
     e( 23 - 24) =      4.69621  eV     2   --> G_7   D_7      
     e( 25 - 26) =      6.85045  eV     2   --> G_7   D_7      
     e( 27 - 28) =      6.91658  eV     2   --> G_6   D_6      
     e( 29 - 30) =      9.82682  eV     2   --> G_6   D_6      
     e( 31 - 32) =     11.40857  eV     2   --> G_7   D_7      
     e( 33 - 34) =     13.46000  eV     2   --> G_6   D_6      
     e( 35 - 36) =     13.46033  eV     2   --> G_7   D_7      

 **************************************************************************

 **************************************************************************

                    xk=(   0.00000,   0.45000,   0.00000  )

     Band symmetry, C_4v (4mm)  double point group:

     e(  1 -  2) =    -16.59033  eV     2   --> G_6   D_6      
     e(  3 -  4) =    -16.58239  eV     2   --> G_7   D_7      
     e(  5 -  6) =    -16.53456  eV     2   --> G_7   D_7      
     e(  7 -  8) =    -16.52040  eV     2   --> G_6   D_6      
     e(  9 - 10) =    -16.06265  eV     2   --> G_7   D_7      
     e( 11 - 12) =    -15.98727  eV     2   --> G_6   D_6      
     e( 13 - 14) =    -15.95832  eV     2   --> G_7   D_7      
     e( 15 - 16) =    -15.89109  eV     2   --> G_6   D_6      
     e( 17 - 18) =    -15.88601  eV     2   --> G_7   D_7      
     e( 19 - 20) =    -15.84334  eV     2   --> G_6   D_6      
     e( 21 - 22) =     -3.46112  eV     2   --> G_6   D_6      
     e( 23 - 24) =      4.23490  eV     2   --> G_7   D_7      
     e( 25 - 26) =      6.63178  eV     2   --> G_7   D_7      
     e( 27 - 28) =      6.68906  eV     2   --> G_6   D_6      
     e( 29 - 30) =      9.65922  eV     2   --> G_6   D_6      
     e( 31 - 32) =     11.37898  eV     2   --> G_7   D_7      
     e( 33 - 34) =     13.88466  eV     2   --> G_7   D_7      
     e( 35 - 36) =     13.89738  eV     2   --> G_6   D_6      

 **************************************************************************

 **************************************************************************

                    xk=(   0.00000,   0.50000,   0.00000  )

     Band symmetry, C_4v (4mm)  double point group:

     e(  1 -  2) =    -16.59037  eV     2   --> G_6   D_6      
     e(  3 -  4) =    -16.58138  eV     2   --> G_7   D_7      
     e(  5 -  6) =    -16.53567  eV     2   --> G_7   D_7      
     e(  7 -  8) =    -16.51979  eV     2   --> G_6   D_6      
     e(  9 - 10) =    -16.05736  eV     2   --> G_7   D_7      
     e( 11 - 12) =    -15.99220  eV     2   --> G_6   D_6      
     e( 13 - 14) =    -15.96017  eV     2   --> G_7   D_7      
     e( 15 - 16) =    -15.89279  eV     2   --> G_6   D_6      
     e( 17 - 18) =    -15.88210  eV     2   --> G_7   D_7      
     e( 19 - 20) =    -15.84336  eV     2   --> G_6   D_6      
     e( 21 - 22) =     -3.27085  eV     2   --> G_6   D_6      
     e( 23 - 24) =      3.77815  eV     2   --> G_7   D_7      
     e( 25 - 26) =      6.42751  eV     2   --> G_7   D_7      
     e( 27 - 28) =      6.47707  eV     2   --> G_6   D_6      
     e( 29 - 30) =      9.50855  eV     2   --> G_6   D_6      
     e( 31 - 32) =     11.24097  eV     2   --> G_7   D_7      
     e( 33 - 34) =     14.31640  eV     2   --> G_7   D_7      
     e( 35 - 36) =     14.34121  eV     2   --> G_6   D_6      

 **************************************************************************

 **************************************************************************

                    xk=(   0.00000,   0.55000,   0.00000  )

     Band symmetry, C_4v (4mm)  double point group:

     e(  1 -  2) =    -16.59015  eV     2   --> G_6   D_6      
     e(  3 -  4) =    -16.58043  eV     2   --> G_7   D_7      
     e(  5 -  6) =    -16.53642  eV     2   --> G_7   D_7      
     e(  7 -  8) =    -16.51933  eV     2   --> G_6   D_6      
     e(  9 - 10) =    -16.05174  eV     2   --> G_7   D_7      
     e( 11 - 12) =    -15.99673  eV     2   --> G_6   D_6      
     e( 13 - 14) =    -15.96180  eV     2   --> G_7   D_7      
     e( 15 - 16) =    -15.89545  eV     2   --> G_6   D_6      
     e( 17 - 18) =    -15.87791  eV     2   --> G_7   D_7      
     e( 19 - 20) =    -15.84297  eV     2   --> G_6   D_6      
     e( 21 - 22) =     -3.06157  eV     2   --> G_6   D_6      
     e( 23 - 24) =      3.32643  eV     2   --> G_7   D_7      
     e( 25 - 26) =      6.23937  eV     2   --> G_7   D_7      
     e( 27 - 28) =      6.28209  eV     2   --> G_6   D_6      
     e( 29 - 30) =      9.37704  eV     2   --> G_6   D_6      
     e( 31 - 32) =     11.03411  eV     2   --> G_7   D_7      
     e( 33 - 34) =     14.75350  eV     2   --> G_7   D_7      
     e( 35 - 36) =     14.78918  eV     2   --> G_6   D_6      

 **************************************************************************

 **************************************************************************

                    xk=(   0.00000,   0.60000,   0.00000  )

     Band symmetry, C_4v (4mm)  double point group:

     e(  1 -  2) =    -16.59006  eV     2   --> G_6   D_6      
     e(  3 -  4) =    -16.57988  eV     2   --> G_7   D_7      
     e(  5 -  6) =    -16.53692  eV     2   --> G_7   D_7      
     e(  7 -  8) =    -16.51917  eV     2   --> G_6   D_6      
     e(  9 - 10) =    -16.04631  eV     2   --> G_7   D_7      
     e( 11 - 12) =    -16.00094  eV     2   --> G_6   D_6      
     e( 13 - 14) =    -15.96320  eV     2   --> G_7   D_7      
     e( 15 - 16) =    -15.89914  eV     2   --> G_6   D_6      
     e( 17 - 18) =    -15.87371  eV     2   --> G_7   D_7      
     e( 19 - 20) =    -15.84250  eV     2   --> G_6   D_6      
     e( 21 - 22) =     -2.83360  eV     2   --> G_6   D_6      
     e( 23 - 24) =      2.88028  eV     2   --> G_7   D_7      
     e( 25 - 26) =      6.06866  eV     2   --> G_7   D_7      
     e( 27 - 28) =      6.10526  eV     2   --> G_6   D_6      
     e( 29 - 30) =      9.26632  eV     2   --> G_6   D_6      
     e( 31 - 32) =     10.79317  eV     2   --> G_7   D_7      
     e( 33 - 34) =     15.19397  eV     2   --> G_7   D_7      
     e( 35 - 36) =     15.23908  eV     2   --> G_6   D_6      

 **************************************************************************

 **************************************************************************

                    xk=(   0.00000,   0.65000,   0.00000  )

     Band symmetry, C_4v (4mm)  double point group:

     e(  1 -  2) =    -16.58971  eV     2   --> G_6   D_6      
     e(  3 -  4) =    -16.57956  eV     2   --> G_7   D_7      
     e(  5 -  6) =    -16.53675  eV     2   --> G_7   D_7      
     e(  7 -  8) =    -16.51922  eV     2   --> G_6   D_6      
     e(  9 - 10) =    -16.04087  eV     2   --> G_7   D_7      
     e( 11 - 12) =    -16.00452  eV     2   --> G_6   D_6      
     e( 13 - 14) =    -15.96417  eV     2   --> G_7   D_7      
     e( 15 - 16) =    -15.90353  eV     2   --> G_6   D_6      
     e( 17 - 18) =    -15.86948  eV     2   --> G_7   D_7      
     e( 19 - 20) =    -15.84191  eV     2   --> G_6   D_6      
     e( 21 - 22) =     -2.58733  eV     2   --> G_6   D_6      
     e( 23 - 24) =      2.44037  eV     2   --> G_7   D_7      
     e( 25 - 26) =      5.91639  eV     2   --> G_7   D_7      
     e( 27 - 28) =      5.94741  eV     2   --> G_6   D_6      
     e( 29 - 30) =      9.17771  eV     2   --> G_6   D_6      
     e( 31 - 32) =     10.54211  eV     2   --> G_7   D_7      
     e( 33 - 34) =     15.63550  eV     2   --> G_7   D_7      
     e( 35 - 36) =     15.68846  eV     2   --> G_6   D_6      

 **************************************************************************

 **************************************************************************

                    xk=(   0.00000,   0.70000,   0.00000  )

     Band symmetry, C_4v (4mm)  double point group:

     e(  1 -  2) =    -16.58909  eV     2   --> G_6   D_6      
     e(  3 -  4) =    -16.57929  eV     2   --> G_7   D_7      
     e(  5 -  6) =    -16.53630  eV     2   --> G_7   D_7      
     e(  7 -  8) =    -16.51959  eV     2   --> G_6   D_6      
     e(  9 - 10) =    -16.03562  eV     2   --> G_7   D_7      
     e( 11 - 12) =    -16.00776  eV     2   --> G_6   D_6      
     e( 13 - 14) =    -15.96424  eV     2   --> G_7   D_7      
     e( 15 - 16) =    -15.90869  eV     2   --> G_6   D_6      
     e( 17 - 18) =    -15.86527  eV     2   --> G_7   D_7      
     e( 19 - 20) =    -15.84152  eV     2   --> G_6   D_6      
     e( 21 - 22) =     -2.32318  eV     2   --> G_6   D_6      
     e( 23 - 24) =      2.00745  eV     2   --> G_7   D_7      
     e( 25 - 26) =      5.78334  eV     2   --> G_7   D_7      
     e( 27 - 28) =      5.80924  eV     2   --> G_6   D_6      
     e( 29 - 30) =      9.11222  eV     2   --> G_6   D_6      
     e( 31 - 32) =     10.29591  eV     2   --> G_7   D_7      
     e( 33 - 34) =     16.07500  eV     2   --> G_7   D_7      
     e( 35 - 36) =     16.13403  eV     2   --> G_6   D_6      

 **************************************************************************

 **************************************************************************

                    xk=(   0.00000,   0.75000,   0.00000  )

     Band symmetry, C_4v (4mm)  double point group:

     e(  1 -  2) =    -16.58831  eV     2   --> G_6   D_6      
     e(  3 -  4) =    -16.57940  eV     2   --> G_7   D_7      
     e(  5 -  6) =    -16.53537  eV     2   --> G_7   D_7      
     e(  7 -  8) =    -16.52020  eV     2   --> G_6   D_6      
     e(  9 - 10) =    -16.03093  eV     2   --> G_7   D_7      
     e( 11 - 12) =    -16.01037  eV     2   --> G_6   D_6      
     e( 13 - 14) =    -15.96355  eV     2   --> G_7   D_7      
     e( 15 - 16) =    -15.91427  eV     2   --> G_6   D_6      
     e( 17 - 18) =    -15.86121  eV     2   --> G_7   D_7      
     e( 19 - 20) =    -15.84124  eV     2   --> G_6   D_6      
     e( 21 - 22) =     -2.04166  eV     2   --> G_6   D_6      
     e( 23 - 24) =      1.58233  eV     2   --> G_7   D_7      
     e( 25 - 26) =      5.67013  eV     2   --> G_7   D_7      
     e( 27 - 28) =      5.69124  eV     2   --> G_6   D_6      
     e( 29 - 30) =      9.07069  eV     2   --> G_6   D_6      
     e( 31 - 32) =     10.06370  eV     2   --> G_7   D_7      
     e( 33 - 34) =     16.50776  eV     2   --> G_7   D_7      
     e( 35 - 36) =     16.57069  eV     2   --> G_6   D_6      

 **************************************************************************

 **************************************************************************

                    xk=(   0.00000,   0.80000,   0.00000  )

     Band symmetry, C_4v (4mm)  double point group:

     e(  1 -  2) =    -16.58766  eV     2   --> G_6   D_6      
     e(  3 -  4) =    -16.57996  eV     2   --> G_7   D_7      
     e(  5 -  6) =    -16.53412  eV     2   --> G_7   D_7      
     e(  7 -  8) =    -16.52115  eV     2   --> G_6   D_6      
     e(  9 - 10) =    -16.02713  eV     2   --> G_7   D_7      
     e( 11 - 12) =    -16.01261  eV     2   --> G_6   D_6      
     e( 13 - 14) =    -15.96193  eV     2   --> G_7   D_7      
     e( 15 - 16) =    -15.92031  eV     2   --> G_6   D_6      
     e( 17 - 18) =    -15.85744  eV     2   --> G_7   D_7      
     e( 19 - 20) =    -15.84129  eV     2   --> G_6   D_6      
     e( 21 - 22) =     -1.74330  eV     2   --> G_6   D_6      
     e( 23 - 24) =      1.16591  eV     2   --> G_7   D_7      
     e( 25 - 26) =      5.57725  eV     2   --> G_7   D_7      
     e( 27 - 28) =      5.59384  eV     2   --> G_6   D_6      
     e( 29 - 30) =      9.05382  eV     2   --> G_6   D_6      
     e( 31 - 32) =      9.85097  eV     2   --> G_7   D_7      
     e( 33 - 34) =     16.92594  eV     2   --> G_7   D_7      
     e( 35 - 36) =     16.98983  eV     2   --> G_6   D_6      

 **************************************************************************

 **************************************************************************

                    xk=(   0.00000,   0.85000,   0.00000  )

     Band symmetry, C_4v (4mm)  double point group:

     e(  1 -  2) =    -16.58669  eV     2   --> G_6   D_6      
     e(  3 -  4) =    -16.58063  eV     2   --> G_7   D_7      
     e(  5 -  6) =    -16.53265  eV     2   --> G_7   D_7      
     e(  7 -  8) =    -16.52226  eV     2   --> G_6   D_6      
     e(  9 - 10) =    -16.02410  eV     2   --> G_7   D_7      
     e( 11 - 12) =    -16.01436  eV     2   --> G_6   D_6      
     e( 13 - 14) =    -15.95895  eV     2   --> G_7   D_7      
     e( 15 - 16) =    -15.92636  eV     2   --> G_6   D_6      
     e( 17 - 18) =    -15.85406  eV     2   --> G_7   D_7      
     e( 19 - 20) =    -15.84182  eV     2   --> G_6   D_6      
     e( 21 - 22) =     -1.42870  eV     2   --> G_6   D_6      
     e( 23 - 24) =      0.75910  eV     2   --> G_7   D_7      
     e( 25 - 26) =      5.50508  eV     2   --> G_7   D_7      
     e( 27 - 28) =      5.51735  eV     2   --> G_6   D_6      
     e( 29 - 30) =      9.06221  eV     2   --> G_6   D_6      
     e( 31 - 32) =      9.66102  eV     2   --> G_7   D_7      
     e( 33 - 34) =     17.31584  eV     2   --> G_7   D_7      
     e( 35 - 36) =     17.37623  eV     2   --> G_6   D_6      

 **************************************************************************

 **************************************************************************

                    xk=(   0.00000,   0.90000,   0.00000  )

     Band symmetry, C_4v (4mm)  double point group:

     e(  1 -  2) =    -16.58573  eV     2   --> G_6   D_6      
     e(  3 -  4) =    -16.58151  eV     2   --> G_7   D_7      
     e(  5 -  6) =    -16.53086  eV     2   --> G_7   D_7      
     e(  7 -  8) =    -16.52374  eV     2   --> G_6   D_6      
     e(  9 - 10) =    -16.02168  eV     2   --> G_7   D_7      
     e( 11 - 12) =    -16.01585  eV     2   --> G_6   D_6      
     e( 13 - 14) =    -15.95500  eV     2   --> G_7   D_7      
     e( 15 - 16) =    -15.93269  eV     2   --> G_6   D_6      
     e( 17 - 18) =    -15.85096  eV     2   --> G_7   D_7      
     e( 19 - 20) =    -15.84276  eV     2   --> G_6   D_6      
     e( 21 - 22) =     -1.09851  eV     2   --> G_6   D_6      
     e( 23 - 24) =      0.36284  eV     2   --> G_7   D_7      
     e( 25 - 26) =      5.45389  eV     2   --> G_7   D_7      
     e( 27 - 28) =      5.46200  eV     2   --> G_6   D_6      
     e( 29 - 30) =      9.09634  eV     2   --> G_6   D_6      
     e( 31 - 32) =      9.49579  eV     2   --> G_7   D_7      
     e( 33 - 34) =     17.65318  eV     2   --> G_7   D_7      
     e( 35 - 36) =     17.70308  eV     2   --> G_6   D_6      

 **************************************************************************

 **************************************************************************

                    xk=(   0.00000,   0.95000,   0.00000  )

     Band symmetry, C_4v (4mm)  double point group:

     e(  1 -  2) =    -16.58460  eV     2   --> G_6   D_6      
     e(  3 -  4) =    -16.58243  eV     2   --> G_7   D_7      
     e(  5 -  6) =    -16.52891  eV     2   --> G_7   D_7      
     e(  7 -  8) =    -16.52534  eV     2   --> G_6   D_6      
     e(  9 - 10) =    -16.01977  eV     2   --> G_7   D_7      
     e( 11 - 12) =    -16.01705  eV     2   --> G_6   D_6      
     e( 13 - 14) =    -15.95016  eV     2   --> G_7   D_7      
     e( 15 - 16) =    -15.93888  eV     2   --> G_6   D_6      
     e( 17 - 18) =    -15.84812  eV     2   --> G_7   D_7      
     e( 19 - 20) =    -15.84400  eV     2   --> G_6   D_6      
     e( 21 - 22) =     -0.75346  eV     2   --> G_6   D_6      
     e( 23 - 24) =     -0.02194  eV     2   --> G_7   D_7      
     e( 25 - 26) =      5.42390  eV     2   --> G_7   D_7      
     e( 27 - 28) =      5.42793  eV     2   --> G_6   D_6      
     e( 29 - 30) =      9.15660  eV     2   --> G_6   D_6      
     e( 31 - 32) =      9.35637  eV     2   --> G_7   D_7      
     e( 33 - 34) =     17.89798  eV     2   --> G_7   D_7      
     e( 35 - 36) =     17.92743  eV     2   --> G_6   D_6      

 **************************************************************************

 **************************************************************************

                    xk=(   0.00000,   1.00000,   0.00000  )

     zone border point and non-symmorphic group 
     symmetry decomposition not available

 **************************************************************************

 **************************************************************************

                    xk=(   0.00000,   0.98750,   0.03750  )

     double point group C_s (m)    
     there are  4 classes and  2 irreducible representations
     the character table:

       E     -E    s     -s   
                              
G_3    1.00 -1.00  0.00  0.00
G_4    1.00 -1.00  0.00  0.00

     imaginary part

       E     -E    s     -s   
                              
G_3    0.00  0.00  1.00 -1.00
G_4    0.00  0.00 -1.00  1.00

     the symmetry operations in each class and the name of the first element:

     E             1
                                                                 
     -E           -1
                                                                 
     s             2
                                                                 
     -s           -2
                                                                 

     Band symmetry, C_s (m)     double point group:

     e(  1 -  2) =    -16.58457  eV     2   --> G_3            
     e(  1 -  2) =    -16.58457  eV     2   --> G_4            
     e(  3 -  4) =    -16.58247  eV     2   --> G_3            
     e(  3 -  4) =    -16.58247  eV     2   --> G_4            
     e(  5 -  6) =    -16.52896  eV     2   --> G_3            
     e(  5 -  6) =    -16.52896  eV     2   --> G_4            
     e(  7 -  8) =    -16.52520  eV     2   --> G_3            
     e(  7 -  8) =    -16.52520  eV     2   --> G_4            
     e(  9 - 10) =    -16.02047  eV     2   --> G_3            
     e(  9 - 10) =    -16.02047  eV     2   --> G_4            
     e( 11 - 12) =    -16.01610  eV     2   --> G_3            
     e( 11 - 12) =    -16.01610  eV     2   --> G_4            
     e( 13 - 14) =    -15.94661  eV     2   --> G_3            
     e( 13 - 14) =    -15.94661  eV     2   --> G_4            
     e( 15 - 16) =    -15.94307  eV     2   --> G_3            
     e( 15 - 16) =    -15.94307  eV     2   --> G_4            
     e( 17 - 18) =    -15.84827  eV     2   --> G_3            
     e( 17 - 18) =    -15.84827  eV     2   --> G_4            
     e( 19 - 20) =    -15.84341  eV     2   --> G_3            
     e( 19 - 20) =    -15.84341  eV     2   --> G_4            
     e( 21 - 22) =     -0.48392  eV     2   --> G_3            
     e( 21 - 22) =     -0.48392  eV     2   --> G_4            
     e( 23 - 24) =     -0.30135  eV     2   --> G_3            
     e( 23 - 24) =     -0.30135  eV     2   --> G_4            
     e( 25 - 26) =      5.39450  eV     2   --> G_3            
     e( 25 - 26) =      5.39450  eV     2   --> G_4            
     e( 27 - 28) =      5.40708  eV     2   --> G_3            
     e( 27 - 28) =      5.40708  eV     2   --> G_4            
     e( 29 - 30) =      9.25011  eV     2   --> G_3            
     e( 29 - 30) =      9.25011  eV     2   --> G_4            
     e( 31 - 32) =      9.30065  eV     2   --> G_3            
     e( 31 - 32) =      9.30065  eV     2   --> G_4            
     e( 33 - 34) =     17.92405  eV     2   --> G_3            
     e( 33 - 34) =     17.92405  eV     2   --> G_4            
     e( 35 - 36) =     17.96204  eV     2   --> G_3            
     e( 35 - 36) =     17.96204  eV     2   --> G_4            

 **************************************************************************

 **************************************************************************

                    xk=(   0.00000,   0.97500,   0.07500  )

     Band symmetry, C_s (m)     double point group:

     e(  1 -  2) =    -16.58576  eV     2   --> G_3            
     e(  1 -  2) =    -16.58576  eV     2   --> G_4            
     e(  3 -  4) =    -16.58158  eV     2   --> G_3            
     e(  3 -  4) =    -16.58158  eV     2   --> G_4            
     e(  5 -  6) =    -16.53085  eV     2   --> G_3            
     e(  5 -  6) =    -16.53085  eV     2   --> G_4            
     e(  7 -  8) =    -16.52336  eV     2   --> G_3            
     e(  7 -  8) =    -16.52336  eV     2   --> G_4            
     e(  9 - 10) =    -16.02259  eV     2   --> G_3            
     e(  9 - 10) =    -16.02259  eV     2   --> G_4            
     e( 11 - 12) =    -16.01383  eV     2   --> G_3            
     e( 11 - 12) =    -16.01383  eV     2   --> G_4            
     e( 13 - 14) =    -15.94868  eV     2   --> G_3            
     e( 13 - 14) =    -15.94868  eV     2   --> G_4            
     e( 15 - 16) =    -15.94165  eV     2   --> G_3            
     e( 15 - 16) =    -15.94165  eV     2   --> G_4            
     e( 17 - 18) =    -15.85082  eV     2   --> G_3            
     e( 17 - 18) =    -15.85082  eV     2   --> G_4            
     e( 19 - 20) =    -15.84113  eV     2   --> G_3            
     e( 19 - 20) =    -15.84113  eV     2   --> G_4            
     e( 21 - 22) =     -0.56903  eV     2   --> G_3            
     e( 21 - 22) =     -0.56903  eV     2   --> G_4            
     e( 23 - 24) =     -0.20628  eV     2   --> G_3            
     e( 23 - 24) =     -0.20628  eV     2   --> G_4            
     e( 25 - 26) =      5.34669  eV     2   --> G_3            
     e( 25 - 26) =      5.34669  eV     2   --> G_4            
     e( 27 - 28) =      5.37203  eV     2   --> G_3            
     e( 27 - 28) =      5.37203  eV     2   --> G_4            
     e( 29 - 30) =      9.32111  eV     2   --> G_3            
     e( 29 - 30) =      9.32111  eV     2   --> G_4            
     e( 31 - 32) =      9.41882  eV     2   --> G_3            
     e( 31 - 32) =      9.41882  eV     2   --> G_4            
     e( 33 - 34) =     17.71372  eV     2   --> G_3            
     e( 33 - 34) =     17.71372  eV     2   --> G_4            
     e( 35 - 36) =     17.83432  eV     2   --> G_3            
     e( 35 - 36) =     17.83432  eV     2   --> G_4            

 **************************************************************************

 **************************************************************************

                    xk=(   0.00000,   0.96250,   0.11250  )

     Band symmetry, C_s (m)     double point group:

     e(  1 -  2) =    -16.58694  eV     2   --> G_3            
     e(  1 -  2) =    -16.58694  eV     2   --> G_4            
     e(  3 -  4) =    -16.58075  eV     2   --> G_3            
     e(  3 -  4) =    -16.58075  eV     2   --> G_4            
     e(  5 -  6) =    -16.53258  eV     2   --> G_3            
     e(  5 -  6) =    -16.53258  eV     2   --> G_4            
     e(  7 -  8) =    -16.52148  eV     2   --> G_3            
     e(  7 -  8) =    -16.52148  eV     2   --> G_4            
     e(  9 - 10) =    -16.02451  eV     2   --> G_3            
     e(  9 - 10) =    -16.02451  eV     2   --> G_4            
     e( 11 - 12) =    -16.01145  eV     2   --> G_3            
     e( 11 - 12) =    -16.01145  eV     2   --> G_4            
     e( 13 - 14) =    -15.95079  eV     2   --> G_3            
     e( 13 - 14) =    -15.95079  eV     2   --> G_4            
     e( 15 - 16) =    -15.94043  eV     2   --> G_3            
     e( 15 - 16) =    -15.94043  eV     2   --> G_4            
     e( 17 - 18) =    -15.85321  eV     2   --> G_3            
     e( 17 - 18) =    -15.85321  eV     2   --> G_4            
     e( 19 - 20) =    -15.83889  eV     2   --> G_3            
     e( 19 - 20) =    -15.83889  eV     2   --> G_4            
     e( 21 - 22) =     -0.64877  eV     2   --> G_3            
     e( 21 - 22) =     -0.64877  eV     2   --> G_4            
     e( 23 - 24) =     -0.11065  eV     2   --> G_3            
     e( 23 - 24) =     -0.11065  eV     2   --> G_4            
     e( 25 - 26) =      5.27519  eV     2   --> G_3            
     e( 25 - 26) =      5.27519  eV     2   --> G_4            
     e( 27 - 28) =      5.31675  eV     2   --> G_3            
     e( 27 - 28) =      5.31675  eV     2   --> G_4            
     e( 29 - 30) =      9.45261  eV     2   --> G_3            
     e( 29 - 30) =      9.45261  eV     2   --> G_4            
     e( 31 - 32) =      9.59171  eV     2   --> G_3            
     e( 31 - 32) =      9.59171  eV     2   --> G_4            
     e( 33 - 34) =     17.35547  eV     2   --> G_3            
     e( 33 - 34) =     17.35547  eV     2   --> G_4            
     e( 35 - 36) =     17.65215  eV     2   --> G_3            
     e( 35 - 36) =     17.65215  eV     2   --> G_4            

 **************************************************************************

 **************************************************************************

                    xk=(   0.00000,   0.95000,   0.15000  )

     Band symmetry, C_s (m)     double point group:

     e(  1 -  2) =    -16.58800  eV     2   --> G_3            
     e(  1 -  2) =    -16.58800  eV     2   --> G_4            
     e(  3 -  4) =    -16.57991  eV     2   --> G_3            
     e(  3 -  4) =    -16.57991  eV     2   --> G_4            
     e(  5 -  6) =    -16.53418  eV     2   --> G_3            
     e(  5 -  6) =    -16.53418  eV     2   --> G_4            
     e(  7 -  8) =    -16.51967  eV     2   --> G_3            
     e(  7 -  8) =    -16.51967  eV     2   --> G_4            
     e(  9 - 10) =    -16.02626  eV     2   --> G_3            
     e(  9 - 10) =    -16.02626  eV     2   --> G_4            
     e( 11 - 12) =    -16.00904  eV     2   --> G_3            
     e( 11 - 12) =    -16.00904  eV     2   --> G_4            
     e( 13 - 14) =    -15.95280  eV     2   --> G_3            
     e( 13 - 14) =    -15.95280  eV     2   --> G_4            
     e( 15 - 16) =    -15.93933  eV     2   --> G_3            
     e( 15 - 16) =    -15.93933  eV     2   --> G_4            
[...]
     e( 35 - 36) =     13.69178  eV     2   --> G_5  D_5       

 **************************************************************************

 **************************************************************************

                    xk=(   0.00000,   0.41250,   0.41250  )

     Band symmetry, C_2v (mm2)  double point group:

     e(  1 -  2) =    -16.59484  eV     2   --> G_5  D_5       
     e(  3 -  4) =    -16.57423  eV     2   --> G_5  D_5       
     e(  5 -  6) =    -16.54256  eV     2   --> G_5  D_5       
     e(  7 -  8) =    -16.51524  eV     2   --> G_5  D_5       
     e(  9 - 10) =    -16.05164  eV     2   --> G_5  D_5       
     e( 11 - 12) =    -15.99599  eV     2   --> G_5  D_5       
     e( 13 - 14) =    -15.96215  eV     2   --> G_5  D_5       
     e( 15 - 16) =    -15.90526  eV     2   --> G_5  D_5       
     e( 17 - 18) =    -15.86741  eV     2   --> G_5  D_5       
     e( 19 - 20) =    -15.84558  eV     2   --> G_5  D_5       
     e( 21 - 22) =     -2.95584  eV     2   --> G_5  D_5       
     e( 23 - 24) =      2.85701  eV     2   --> G_5  D_5       
     e( 25 - 26) =      5.25223  eV     2   --> G_5  D_5       
     e( 27 - 28) =      7.43056  eV     2   --> G_5  D_5       
     e( 29 - 30) =     10.52925  eV     2   --> G_5  D_5       
     e( 31 - 32) =     12.57973  eV     2   --> G_5  D_5       
     e( 33 - 34) =     12.84908  eV     2   --> G_5  D_5       
     e( 35 - 36) =     13.65626  eV     2   --> G_5  D_5       

 **************************************************************************

 **************************************************************************

                    xk=(   0.00000,   0.37500,   0.37500  )

     Band symmetry, C_2v (mm2)  double point group:

     e(  1 -  2) =    -16.59412  eV     2   --> G_5  D_5       
     e(  3 -  4) =    -16.57599  eV     2   --> G_5  D_5       
     e(  5 -  6) =    -16.54037  eV     2   --> G_5  D_5       
     e(  7 -  8) =    -16.51669  eV     2   --> G_5  D_5       
     e(  9 - 10) =    -16.05642  eV     2   --> G_5  D_5       
     e( 11 - 12) =    -15.99188  eV     2   --> G_5  D_5       
     e( 13 - 14) =    -15.96116  eV     2   --> G_5  D_5       
     e( 15 - 16) =    -15.90230  eV     2   --> G_5  D_5       
     e( 17 - 18) =    -15.87013  eV     2   --> G_5  D_5       
     e( 19 - 20) =    -15.84634  eV     2   --> G_5  D_5       
     e( 21 - 22) =     -3.17474  eV     2   --> G_5  D_5       
     e( 23 - 24) =      3.28055  eV     2   --> G_5  D_5       
     e( 25 - 26) =      5.56753  eV     2   --> G_5  D_5       
     e( 27 - 28) =      7.61060  eV     2   --> G_5  D_5       
     e( 29 - 30) =     10.49773  eV     2   --> G_5  D_5       
     e( 31 - 32) =     12.31609  eV     2   --> G_5  D_5       
     e( 33 - 34) =     12.56293  eV     2   --> G_5  D_5       
     e( 35 - 36) =     13.65106  eV     2   --> G_5  D_5       

 **************************************************************************

 **************************************************************************

                    xk=(   0.00000,   0.33750,   0.33750  )

     Band symmetry, C_2v (mm2)  double point group:

     e(  1 -  2) =    -16.59355  eV     2   --> G_5  D_5       
     e(  3 -  4) =    -16.57812  eV     2   --> G_5  D_5       
     e(  5 -  6) =    -16.53820  eV     2   --> G_5  D_5       
     e(  7 -  8) =    -16.51827  eV     2   --> G_5  D_5       
     e(  9 - 10) =    -16.06156  eV     2   --> G_5  D_5       
     e( 11 - 12) =    -15.98731  eV     2   --> G_5  D_5       
     e( 13 - 14) =    -15.96015  eV     2   --> G_5  D_5       
     e( 15 - 16) =    -15.90033  eV     2   --> G_5  D_5       
     e( 17 - 18) =    -15.87396  eV     2   --> G_5  D_5       
     e( 19 - 20) =    -15.84629  eV     2   --> G_5  D_5       
     e( 21 - 22) =     -3.37743  eV     2   --> G_5  D_5       
     e( 23 - 24) =      3.72820  eV     2   --> G_5  D_5       
     e( 25 - 26) =      5.90447  eV     2   --> G_5  D_5       
     e( 27 - 28) =      7.77900  eV     2   --> G_5  D_5       
     e( 29 - 30) =     10.43577  eV     2   --> G_5  D_5       
     e( 31 - 32) =     12.07579  eV     2   --> G_5  D_5       
     e( 33 - 34) =     12.30092  eV     2   --> G_5  D_5       
     e( 35 - 36) =     13.63867  eV     2   --> G_5  D_5       

 **************************************************************************

 **************************************************************************

                    xk=(   0.00000,   0.30000,   0.30000  )

     Band symmetry, C_2v (mm2)  double point group:

     e(  1 -  2) =    -16.59284  eV     2   --> G_5  D_5       
     e(  3 -  4) =    -16.58014  eV     2   --> G_5  D_5       
     e(  5 -  6) =    -16.53590  eV     2   --> G_5  D_5       
     e(  7 -  8) =    -16.51971  eV     2   --> G_5  D_5       
     e(  9 - 10) =    -16.06653  eV     2   --> G_5  D_5       
     e( 11 - 12) =    -15.98211  eV     2   --> G_5  D_5       
     e( 13 - 14) =    -15.95879  eV     2   --> G_5  D_5       
     e( 15 - 16) =    -15.89909  eV     2   --> G_5  D_5       
     e( 17 - 18) =    -15.87830  eV     2   --> G_5  D_5       
     e( 19 - 20) =    -15.84543  eV     2   --> G_5  D_5       
     e( 21 - 22) =     -3.56215  eV     2   --> G_5  D_5       
     e( 23 - 24) =      4.19918  eV     2   --> G_5  D_5       
     e( 25 - 26) =      6.25814  eV     2   --> G_5  D_5       
     e( 27 - 28) =      7.93266  eV     2   --> G_5  D_5       
     e( 29 - 30) =     10.35132  eV     2   --> G_5  D_5       
     e( 31 - 32) =     11.85913  eV     2   --> G_5  D_5       
     e( 33 - 34) =     12.06357  eV     2   --> G_5  D_5       
     e( 35 - 36) =     13.56689  eV     2   --> G_5  D_5       

 **************************************************************************

 **************************************************************************

                    xk=(   0.00000,   0.26250,   0.26250  )

     Band symmetry, C_2v (mm2)  double point group:

     e(  1 -  2) =    -16.59216  eV     2   --> G_5  D_5       
     e(  3 -  4) =    -16.58205  eV     2   --> G_5  D_5       
     e(  5 -  6) =    -16.53402  eV     2   --> G_5  D_5       
     e(  7 -  8) =    -16.52132  eV     2   --> G_5  D_5       
     e(  9 - 10) =    -16.07131  eV     2   --> G_5  D_5       
     e( 11 - 12) =    -15.97680  eV     2   --> G_5  D_5       
     e( 13 - 14) =    -15.95741  eV     2   --> G_5  D_5       
     e( 15 - 16) =    -15.89874  eV     2   --> G_5  D_5       
     e( 17 - 18) =    -15.88297  eV     2   --> G_5  D_5       
     e( 19 - 20) =    -15.84440  eV     2   --> G_5  D_5       
     e( 21 - 22) =     -3.72755  eV     2   --> G_5  D_5       
     e( 23 - 24) =      4.69240  eV     2   --> G_5  D_5       
     e( 25 - 26) =      6.62270  eV     2   --> G_5  D_5       
     e( 27 - 28) =      8.06919  eV     2   --> G_5  D_5       
     e( 29 - 30) =     10.25106  eV     2   --> G_5  D_5       
     e( 31 - 32) =     11.66620  eV     2   --> G_5  D_5       
     e( 33 - 34) =     11.85108  eV     2   --> G_5  D_5       
     e( 35 - 36) =     13.38233  eV     2   --> G_5  D_5       

 **************************************************************************

 **************************************************************************

                    xk=(   0.00000,   0.22500,   0.22500  )

     Band symmetry, C_2v (mm2)  double point group:

     e(  1 -  2) =    -16.59148  eV     2   --> G_5  D_5       
     e(  3 -  4) =    -16.58378  eV     2   --> G_5  D_5       
     e(  5 -  6) =    -16.53222  eV     2   --> G_5  D_5       
     e(  7 -  8) =    -16.52269  eV     2   --> G_5  D_5       
     e(  9 - 10) =    -16.07567  eV     2   --> G_5  D_5       
     e( 11 - 12) =    -15.97129  eV     2   --> G_5  D_5       
     e( 13 - 14) =    -15.95586  eV     2   --> G_5  D_5       
     e( 15 - 16) =    -15.89906  eV     2   --> G_5  D_5       
     e( 17 - 18) =    -15.88770  eV     2   --> G_5  D_5       
     e( 19 - 20) =    -15.84310  eV     2   --> G_5  D_5       
     e( 21 - 22) =     -3.87257  eV     2   --> G_5  D_5       
     e( 23 - 24) =      5.20642  eV     2   --> G_5  D_5       
     e( 25 - 26) =      6.99075  eV     2   --> G_5  D_5       
     e( 27 - 28) =      8.18721  eV     2   --> G_5  D_5       
     e( 29 - 30) =     10.13830  eV     2   --> G_5  D_5       
     e( 31 - 32) =     11.49680  eV     2   --> G_5  D_5       
     e( 33 - 34) =     11.66355  eV     2   --> G_5  D_5       
     e( 35 - 36) =     13.06289  eV     2   --> G_5  D_5       

 **************************************************************************

 **************************************************************************

                    xk=(   0.00000,   0.18750,   0.18750  )

     Band symmetry, C_2v (mm2)  double point group:

     e(  1 -  2) =    -16.59077  eV     2   --> G_5  D_5       
     e(  3 -  4) =    -16.58531  eV     2   --> G_5  D_5       
     e(  5 -  6) =    -16.53074  eV     2   --> G_5  D_5       
     e(  7 -  8) =    -16.52388  eV     2   --> G_5  D_5       
     e(  9 - 10) =    -16.07954  eV     2   --> G_5  D_5       
     e( 11 - 12) =    -15.96583  eV     2   --> G_5  D_5       
     e( 13 - 14) =    -15.95425  eV     2   --> G_5  D_5       
     e( 15 - 16) =    -15.89999  eV     2   --> G_5  D_5       
     e( 17 - 18) =    -15.89223  eV     2   --> G_5  D_5       
     e( 19 - 20) =    -15.84183  eV     2   --> G_5  D_5       
     e( 21 - 22) =     -3.99642  eV     2   --> G_5  D_5       
     e( 23 - 24) =      5.73918  eV     2   --> G_5  D_5       
     e( 25 - 26) =      7.35245  eV     2   --> G_5  D_5       
     e( 27 - 28) =      8.28644  eV     2   --> G_5  D_5       
     e( 29 - 30) =     10.01105  eV     2   --> G_5  D_5       
     e( 31 - 32) =     11.35025  eV     2   --> G_5  D_5       
     e( 33 - 34) =     11.50122  eV     2   --> G_5  D_5       
     e( 35 - 36) =     12.63719  eV     2   --> G_5  D_5       

 **************************************************************************

 **************************************************************************

                    xk=(   0.00000,   0.15000,   0.15000  )

     Band symmetry, C_2v (mm2)  double point group:

     e(  1 -  2) =    -16.59022  eV     2   --> G_5  D_5       
     e(  3 -  4) =    -16.58668  eV     2   --> G_5  D_5       
     e(  5 -  6) =    -16.52942  eV     2   --> G_5  D_5       
     e(  7 -  8) =    -16.52490  eV     2   --> G_5  D_5       
     e(  9 - 10) =    -16.08293  eV     2   --> G_5  D_5       
     e( 11 - 12) =    -15.96060  eV     2   --> G_5  D_5       
     e( 13 - 14) =    -15.95261  eV     2   --> G_5  D_5       
     e( 15 - 16) =    -15.90138  eV     2   --> G_5  D_5       
     e( 17 - 18) =    -15.89647  eV     2   --> G_5  D_5       
     e( 19 - 20) =    -15.84065  eV     2   --> G_5  D_5       
     e( 21 - 22) =     -4.09848  eV     2   --> G_5  D_5       
     e( 23 - 24) =      6.28762  eV     2   --> G_5  D_5       
     e( 25 - 26) =      7.69413  eV     2   --> G_5  D_5       
     e( 27 - 28) =      8.36800  eV     2   --> G_5  D_5       
     e( 29 - 30) =      9.85916  eV     2   --> G_5  D_5       
     e( 31 - 32) =     11.22502  eV     2   --> G_5  D_5       
     e( 33 - 34) =     11.36482  eV     2   --> G_5  D_5       
     e( 35 - 36) =     12.16549  eV     2   --> G_5  D_5       

 **************************************************************************

 **************************************************************************

                    xk=(   0.00000,   0.11250,   0.11250  )

     Band symmetry, C_2v (mm2)  double point group:

     e(  1 -  2) =    -16.58970  eV     2   --> G_5  D_5       
     e(  3 -  4) =    -16.58768  eV     2   --> G_5  D_5       
     e(  5 -  6) =    -16.52826  eV     2   --> G_5  D_5       
     e(  7 -  8) =    -16.52564  eV     2   --> G_5  D_5       
     e(  9 - 10) =    -16.08560  eV     2   --> G_5  D_5       
     e( 11 - 12) =    -15.95579  eV     2   --> G_5  D_5       
     e( 13 - 14) =    -15.95098  eV     2   --> G_5  D_5       
     e( 15 - 16) =    -15.90292  eV     2   --> G_5  D_5       
     e( 17 - 18) =    -15.90017  eV     2   --> G_5  D_5       
     e( 19 - 20) =    -15.83968  eV     2   --> G_5  D_5       
     e( 21 - 22) =     -4.17828  eV     2   --> G_5  D_5       
     e( 23 - 24) =      6.84698  eV     2   --> G_5  D_5       
     e( 25 - 26) =      7.99618  eV     2   --> G_5  D_5       
     e( 27 - 28) =      8.43514  eV     2   --> G_5  D_5       
     e( 29 - 30) =      9.66034  eV     2   --> G_5  D_5       
     e( 31 - 32) =     11.11803  eV     2   --> G_5  D_5       
     e( 33 - 34) =     11.25603  eV     2   --> G_5  D_5       
     e( 35 - 36) =     11.71745  eV     2   --> G_5  D_5       

 **************************************************************************

 **************************************************************************

                    xk=(   0.00000,   0.07500,   0.07500  )

     Band symmetry, C_2v (mm2)  double point group:

     e(  1 -  2) =    -16.58940  eV     2   --> G_5  D_5       
     e(  3 -  4) =    -16.58840  eV     2   --> G_5  D_5       
     e(  5 -  6) =    -16.52744  eV     2   --> G_5  D_5       
     e(  7 -  8) =    -16.52625  eV     2   --> G_5  D_5       
     e(  9 - 10) =    -16.08762  eV     2   --> G_5  D_5       
     e( 11 - 12) =    -15.95189  eV     2   --> G_5  D_5       
     e( 13 - 14) =    -15.94963  eV     2   --> G_5  D_5       
     e( 15 - 16) =    -15.90442  eV     2   --> G_5  D_5       
     e( 17 - 18) =    -15.90311  eV     2   --> G_5  D_5       
     e( 19 - 20) =    -15.83887  eV     2   --> G_5  D_5       
     e( 21 - 22) =     -4.23551  eV     2   --> G_5  D_5       
     e( 23 - 24) =      7.40898  eV     2   --> G_5  D_5       
     e( 25 - 26) =      8.22993  eV     2   --> G_5  D_5       
     e( 27 - 28) =      8.49564  eV     2   --> G_5  D_5       
     e( 29 - 30) =      9.38187  eV     2   --> G_5  D_5       
     e( 31 - 32) =     11.02373  eV     2   --> G_5  D_5       
     e( 33 - 34) =     11.17713  eV     2   --> G_5  D_5       
     e( 35 - 36) =     11.36647  eV     2   --> G_5  D_5       

 **************************************************************************

 **************************************************************************

                    xk=(   0.00000,   0.03750,   0.03750  )

     Band symmetry, C_2v (mm2)  double point group:

     e(  1 -  2) =    -16.58916  eV     2   --> G_5  D_5       
     e(  3 -  4) =    -16.58880  eV     2   --> G_5  D_5       
     e(  5 -  6) =    -16.52692  eV     2   --> G_5  D_5       
     e(  7 -  8) =    -16.52664  eV     2   --> G_5  D_5       
     e(  9 - 10) =    -16.08880  eV     2   --> G_5  D_5       
     e( 11 - 12) =    -15.94929  eV     2   --> G_5  D_5       
     e( 13 - 14) =    -15.94869  eV     2   --> G_5  D_5       
     e( 15 - 16) =    -15.90544  eV     2   --> G_5  D_5       
     e( 17 - 18) =    -15.90505  eV     2   --> G_5  D_5       
     e( 19 - 20) =    -15.83838  eV     2   --> G_5  D_5       
     e( 21 - 22) =     -4.26993  eV     2   --> G_5  D_5       
     e( 23 - 24) =      7.95422  eV     2   --> G_5  D_5       
     e( 25 - 26) =      8.36721  eV     2   --> G_5  D_5       
     e( 27 - 28) =      8.55736  eV     2   --> G_5  D_5       
     e( 29 - 30) =      9.00343  eV     2   --> G_5  D_5       
     e( 31 - 32) =     10.93997  eV     2   --> G_5  D_5       
     e( 33 - 34) =     11.12969  eV     2   --> G_5  D_5       
     e( 35 - 36) =     11.16931  eV     2   --> G_5  D_5       

 **************************************************************************

 **************************************************************************

                    xk=(   0.00000,   0.00000,   0.00000  )

     double point group O_h (m-3m) 
     there are 16 classes and  6 irreducible representations
     the character table:

       E     -E    8C3   -8C3   3C2  6C4   -6C4   6C2' i     -i    8S6   -8S6 
                               -3C2              -6C2'                        
G_6+   2.00 -2.00  1.00 -1.00  0.00  1.41 -1.41  0.00  2.00 -2.00  1.00 -1.00
G_7+   2.00 -2.00  1.00 -1.00  0.00 -1.41  1.41  0.00  2.00 -2.00  1.00 -1.00
G_8+   4.00 -4.00 -1.00  1.00  0.00  0.00  0.00  0.00  4.00 -4.00 -1.00  1.00
G_6-   2.00 -2.00  1.00 -1.00  0.00  1.41 -1.41  0.00 -2.00  2.00 -1.00  1.00
G_7-   2.00 -2.00  1.00 -1.00  0.00 -1.41  1.41  0.00 -2.00  2.00 -1.00  1.00
G_8-   4.00 -4.00 -1.00  1.00  0.00  0.00  0.00  0.00 -4.00  4.00  1.00 -1.00

        3s_h 6S4   -6S4   6s_d
       -3s_h             -6s_d
G_6+   0.00  1.41 -1.41  0.00
G_7+   0.00 -1.41  1.41  0.00
G_8+   0.00  0.00  0.00  0.00
G_6-   0.00 -1.41  1.41  0.00
G_7-   0.00  1.41 -1.41  0.00
G_8-   0.00  0.00  0.00  0.00

     the symmetry operations in each class and the name of the first element:

     E             1
                                                                 
     -E           -1
                                                                 
     8C3          17   19   20   18   24   21   22   23
                                                                 
     -8C3        -17  -19  -20  -18  -24  -21  -22  -23
                                                                 
      3C2 -3C2     2   -2    4   -4    3   -3
                                                                 
     6C4           7    8   15   16   12   11
                                                                 
     -6C4         -7   -8  -15  -16  -12  -11
                                                                 
      6C2'-6C2'    5   -5   -6    6   14  -13  -14   13   10   -9  -10    9
                                                                 
     i            25
                                                                 
     -i          -25
                                                                 
     8S6          41   43   44   42   48   45   46   47
                                                                 
     -8S6        -41  -43  -44  -42  -48  -45  -46  -47
                                                                 
      3s_h-3s_h   26  -26   28  -28   27  -27
                                                                 
     6S4          31   32   39   40   36   35
                                                                 
     -6S4        -31  -32  -39  -40  -36  -35
                                                                 
      6s_d-6s_d   29  -29  -30   30   38  -37  -38   37   34  -33  -34   33
                                                                 

     Band symmetry, O_h (m-3m)  double point group:

     e(  1 -  4) =    -16.58917  eV     4   --> G_8+           
     e(  5 -  8) =    -16.52677  eV     4   --> G_8-           
     e(  9 - 10) =    -16.08937  eV     2   --> G_7+           
     e( 11 - 14) =    -15.94838  eV     4   --> G_8-           
     e( 15 - 18) =    -15.90593  eV     4   --> G_8+           
     e( 19 - 20) =    -15.83822  eV     2   --> G_6-           
     e( 21 - 22) =     -4.28142  eV     2   --> G_6+           
     e( 23 - 24) =      8.29489  eV     2   --> G_7+           
     e( 25 - 26) =      8.53292  eV     2   --> G_7-           
     e( 27 - 30) =      8.58911  eV     4   --> G_8+           
     e( 31 - 32) =     10.90100  eV     2   --> G_6-           
     e( 33 - 36) =     11.11393  eV     4   --> G_8-           

 **************************************************************************

     BANDS        :   3m29.18s CPU   2m50.89s WALL


   This run was terminated on:   7:26:13  19Dec2024            

=------------------------------------------------------------------------------=
   JOB DONE.
=------------------------------------------------------------------------------=
