
     Program PWSCF v.7.0 starts on 19Dec2024 at  7:15:57 

     This program is part of the open-source Quantum ESPRESSO suite
     for quantum simulation of materials; please cite
         "P. Giannozzi et al., J. Phys.:Condens. Matter 21 395502 (2009);
         "P. Giannozzi et al., J. Phys.:Condens. Matter 29 465901 (2017);
         "P. Giannozzi et al., J. Chem. Phys. 152 154105 (2020);
          URL http://www.quantum-espresso.org", 
     in publications or presentations arising from this work. More details at
     http://www.quantum-espresso.org/quote

     Parallel version (MPI & OpenMP), running on       2 processor cores
     Number of MPI processes:                 2
     Threads/MPI process:                     1

     MPI processes distributed on     1 nodes
     R & G space division:  proc/nbgrp/npool/nimage =       2
     372 MiB available memory on the printing compute node when the environment starts

     Reading input from pw.bands.wo_soc.in
Warning: card / ignored

     Current dimensions of program PWSCF are:
     Max number of different atomic species (ntypx) = 10
     Max number of k-points (npk) =  40000
     Max angular momentum in pseudopotentials (lmaxx) =  4
     Message from routine volume:
     axis vectors are left-handed

     Atomic positions and unit cell read from directory:
     ./outputs/ge.save/

     Message from routine volume:
     axis vectors are left-handed

     IMPORTANT: XC functional enforced from input :
     Exchange-correlation= PBE
                           (   1   4   3   4   0   0   0)
     Any further DFT definition will be discarded
     Please, verify this is what you really want

     Message from routine setup:
     using ibrav=0 with symmetry is DISCOURAGED, use correct ibrav instead

     Subspace diagonalization in iterative solution of the eigenvalue problem:
     a serial algorithm will be used


     Parallelization info
     --------------------
     sticks:   dense  smooth     PW     G-vecs:    dense   smooth      PW
     Min         395     395    120                 7276     7276    1198
     Max         398     398    121                 7277     7277    1199
     Sum         793     793    241                14553    14553    2397

     Using Slab Decomposition



     bravais-lattice index     =            0
     lattice parameter (alat)  =      10.6908  a.u.
     unit-cell volume          =     305.4751 (a.u.)^3
     number of atoms/cell      =            2
     number of atomic types    =            1
     number of electrons       =         8.00
     number of Kohn-Sham states=            8
     kinetic-energy cutoff     =      50.0000  Ry
     charge density cutoff     =     200.0000  Ry
     Exchange-correlation= PBE
                           (   1   4   3   4   0   0   0)

     celldm(1)=  10.690842  celldm(2)=   0.000000  celldm(3)=   0.000000
     celldm(4)=   0.000000  celldm(5)=   0.000000  celldm(6)=   0.000000

     crystal axes: (cart. coord. in units of alat)
               a(1) = (   0.500000   0.500000   0.000000 )  
               a(2) = (   0.500000   0.000000   0.500000 )  
               a(3) = (   0.000000   0.500000   0.500000 )  

     reciprocal axes: (cart. coord. in units 2 pi/alat)
               b(1) = (  1.000000  1.000000 -1.000000 )  
               b(2) = (  1.000000 -1.000000  1.000000 )  
               b(3) = ( -1.000000  1.000000  1.000000 )  


     PseudoPot. # 1 for Ge read from file:
     ../Pseudopotentials/Ge.pbe-n-kjpaw_psl.1.0.0.UPF
     MD5 check sum: 86cd6a1ce4ead6fa7a4673d64b86017a
     Pseudo is Projector augmented-wave + core cor, Zval =  4.0
     Generated using &quot;atomic&quot; code by A. Dal Corso  v.6.3
     Shape of augmentation charge: PSQ
     Using radial grid of 1207 points,  4 beta functions with: 
                l(1) =   0
                l(2) =   0
                l(3) =   1
                l(4) =   1
     Q(r) pseudized with 0 coefficients 


     atomic species   valence    mass     pseudopotential
        Ge             4.00    72.63000     Ge( 1.00)

     Starting magnetic structure 
     atomic species   magnetization
        Ge           1.000

     48 Sym. Ops., with inversion, found (24 have fractional translation)


                                    s                        frac. trans.

      isym =  1     identity                                     

 cryst.   s( 1) = (     1          0          0      )
                  (     0          1          0      )
                  (     0          0          1      )

 cart.    s( 1) = (  1.0000000  0.0000000  0.0000000 )
                  (  0.0000000  1.0000000  0.0000000 )
                  (  0.0000000  0.0000000  1.0000000 )


      isym =  2     180 deg rotation - cart. axis [0,0,1]        

 cryst.   s( 2) = (    -1          0          0      )
                  (    -1          0          1      )
                  (    -1          1          0      )

 cart.    s( 2) = ( -1.0000000  0.0000000  0.0000000 )
                  (  0.0000000 -1.0000000  0.0000000 )
                  (  0.0000000  0.0000000  1.0000000 )


      isym =  3     180 deg rotation - cart. axis [0,1,0]        

 cryst.   s( 3) = (     0         -1          1      )
                  (     0         -1          0      )
                  (     1         -1          0      )

 cart.    s( 3) = ( -1.0000000  0.0000000  0.0000000 )
                  (  0.0000000  1.0000000  0.0000000 )
                  (  0.0000000  0.0000000 -1.0000000 )


      isym =  4     180 deg rotation - cart. axis [1,0,0]        

 cryst.   s( 4) = (     0          1         -1      )
                  (     1          0         -1      )
                  (     0          0         -1      )

 cart.    s( 4) = (  1.0000000  0.0000000  0.0000000 )
                  (  0.0000000 -1.0000000  0.0000000 )
                  (  0.0000000  0.0000000 -1.0000000 )


      isym =  5     180 deg rotation - cart. axis [1,1,0]        

 cryst.   s( 5) = (     1          0          0      )    f =( -0.2500000 )
                  (     1         -1          0      )       ( -0.2500000 )
                  (     1          0         -1      )       ( -0.2500000 )

 cart.    s( 5) = (  0.0000000  1.0000000  0.0000000 )    f =( -0.2500000 )
                  (  1.0000000  0.0000000  0.0000000 )       ( -0.2500000 )
                  (  0.0000000  0.0000000 -1.0000000 )       ( -0.2500000 )


      isym =  6     180 deg rotation - cart. axis [1,-1,0]       

 cryst.   s( 6) = (    -1          0          0      )    f =( -0.2500000 )
                  (     0          0         -1      )       ( -0.2500000 )
                  (     0         -1          0      )       ( -0.2500000 )

 cart.    s( 6) = (  0.0000000 -1.0000000  0.0000000 )    f =( -0.2500000 )
                  ( -1.0000000  0.0000000  0.0000000 )       ( -0.2500000 )
                  (  0.0000000  0.0000000 -1.0000000 )       ( -0.2500000 )


      isym =  7      90 deg rotation - cart. axis [0,0,-1]       

 cryst.   s( 7) = (     0          1         -1      )    f =( -0.2500000 )
                  (    -1          1          0      )       ( -0.2500000 )
                  (     0          1          0      )       ( -0.2500000 )

 cart.    s( 7) = (  0.0000000  1.0000000  0.0000000 )    f =( -0.2500000 )
                  ( -1.0000000  0.0000000  0.0000000 )       ( -0.2500000 )
                  (  0.0000000  0.0000000  1.0000000 )       ( -0.2500000 )


      isym =  8      90 deg rotation - cart. axis [0,0,1]        

 cryst.   s( 8) = (     0         -1          1      )    f =( -0.2500000 )
                  (     0          0          1      )       ( -0.2500000 )
                  (    -1          0          1      )       ( -0.2500000 )

 cart.    s( 8) = (  0.0000000 -1.0000000  0.0000000 )    f =( -0.2500000 )
                  (  1.0000000  0.0000000  0.0000000 )       ( -0.2500000 )
                  (  0.0000000  0.0000000  1.0000000 )       ( -0.2500000 )


      isym =  9     180 deg rotation - cart. axis [1,0,1]        

 cryst.   s( 9) = (    -1          1          0      )    f =( -0.2500000 )
                  (     0          1          0      )       ( -0.2500000 )
                  (     0          1         -1      )       ( -0.2500000 )

 cart.    s( 9) = (  0.0000000  0.0000000  1.0000000 )    f =( -0.2500000 )
                  (  0.0000000 -1.0000000  0.0000000 )       ( -0.2500000 )
                  (  1.0000000  0.0000000  0.0000000 )       ( -0.2500000 )


      isym = 10     180 deg rotation - cart. axis [-1,0,1]       

 cryst.   s(10) = (     0          0         -1      )    f =( -0.2500000 )
                  (     0         -1          0      )       ( -0.2500000 )
                  (    -1          0          0      )       ( -0.2500000 )

 cart.    s(10) = (  0.0000000  0.0000000 -1.0000000 )    f =( -0.2500000 )
                  (  0.0000000 -1.0000000  0.0000000 )       ( -0.2500000 )
                  ( -1.0000000  0.0000000  0.0000000 )       ( -0.2500000 )


      isym = 11      90 deg rotation - cart. axis [0,1,0]        

 cryst.   s(11) = (     1         -1          0      )    f =( -0.2500000 )
                  (     1          0         -1      )       ( -0.2500000 )
                  (     1          0          0      )       ( -0.2500000 )

 cart.    s(11) = (  0.0000000  0.0000000  1.0000000 )    f =( -0.2500000 )
                  (  0.0000000  1.0000000  0.0000000 )       ( -0.2500000 )
                  ( -1.0000000  0.0000000  0.0000000 )       ( -0.2500000 )


      isym = 12      90 deg rotation - cart. axis [0,-1,0]       

 cryst.   s(12) = (     0          0          1      )    f =( -0.2500000 )
                  (    -1          0          1      )       ( -0.2500000 )
                  (     0         -1          1      )       ( -0.2500000 )

 cart.    s(12) = (  0.0000000  0.0000000 -1.0000000 )    f =( -0.2500000 )
                  (  0.0000000  1.0000000  0.0000000 )       ( -0.2500000 )
                  (  1.0000000  0.0000000  0.0000000 )       ( -0.2500000 )


      isym = 13     180 deg rotation - cart. axis [0,1,1]        

 cryst.   s(13) = (    -1          0          1      )    f =( -0.2500000 )
                  (     0         -1          1      )       ( -0.2500000 )
                  (     0          0          1      )       ( -0.2500000 )

 cart.    s(13) = ( -1.0000000  0.0000000  0.0000000 )    f =( -0.2500000 )
                  (  0.0000000  0.0000000  1.0000000 )       ( -0.2500000 )
                  (  0.0000000  1.0000000  0.0000000 )       ( -0.2500000 )


      isym = 14     180 deg rotation - cart. axis [0,1,-1]       

 cryst.   s(14) = (     0         -1          0      )    f =( -0.2500000 )
                  (    -1          0          0      )       ( -0.2500000 )
                  (     0          0         -1      )       ( -0.2500000 )

 cart.    s(14) = ( -1.0000000  0.0000000  0.0000000 )    f =( -0.2500000 )
                  (  0.0000000  0.0000000 -1.0000000 )       ( -0.2500000 )
                  (  0.0000000 -1.0000000  0.0000000 )       ( -0.2500000 )


      isym = 15      90 deg rotation - cart. axis [-1,0,0]       

 cryst.   s(15) = (     1          0         -1      )    f =( -0.2500000 )
                  (     1          0          0      )       ( -0.2500000 )
                  (     1         -1          0      )       ( -0.2500000 )

 cart.    s(15) = (  1.0000000  0.0000000  0.0000000 )    f =( -0.2500000 )
                  (  0.0000000  0.0000000  1.0000000 )       ( -0.2500000 )
                  (  0.0000000 -1.0000000  0.0000000 )       ( -0.2500000 )


      isym = 16      90 deg rotation - cart. axis [1,0,0]        

 cryst.   s(16) = (     0          1          0      )    f =( -0.2500000 )
                  (     0          1         -1      )       ( -0.2500000 )
                  (    -1          1          0      )       ( -0.2500000 )

 cart.    s(16) = (  1.0000000  0.0000000  0.0000000 )    f =( -0.2500000 )
                  (  0.0000000  0.0000000 -1.0000000 )       ( -0.2500000 )
                  (  0.0000000  1.0000000  0.0000000 )       ( -0.2500000 )


      isym = 17     120 deg rotation - cart. axis [-1,-1,-1]     

 cryst.   s(17) = (     0          1          0      )
                  (     0          0          1      )
                  (     1          0          0      )

 cart.    s(17) = (  0.0000000  1.0000000  0.0000000 )
                  (  0.0000000  0.0000000  1.0000000 )
                  (  1.0000000  0.0000000  0.0000000 )


      isym = 18     120 deg rotation - cart. axis [-1,1,1]       

 cryst.   s(18) = (     0         -1          0      )
                  (     1         -1          0      )
                  (     0         -1          1      )

 cart.    s(18) = (  0.0000000 -1.0000000  0.0000000 )
                  (  0.0000000  0.0000000  1.0000000 )
                  ( -1.0000000  0.0000000  0.0000000 )


      isym = 19     120 deg rotation - cart. axis [1,1,-1]       

 cryst.   s(19) = (     1          0         -1      )
                  (     0          0         -1      )
                  (     0          1         -1      )

 cart.    s(19) = (  0.0000000  1.0000000  0.0000000 )
                  (  0.0000000  0.0000000 -1.0000000 )
                  ( -1.0000000  0.0000000  0.0000000 )


      isym = 20     120 deg rotation - cart. axis [1,-1,1]       

 cryst.   s(20) = (    -1          0          1      )
                  (    -1          1          0      )
                  (    -1          0          0      )

 cart.    s(20) = (  0.0000000 -1.0000000  0.0000000 )
                  (  0.0000000  0.0000000 -1.0000000 )
                  (  1.0000000  0.0000000  0.0000000 )


      isym = 21     120 deg rotation - cart. axis [1,1,1]        

 cryst.   s(21) = (     0          0          1      )
                  (     1          0          0      )
                  (     0          1          0      )

 cart.    s(21) = (  0.0000000  0.0000000  1.0000000 )
                  (  1.0000000  0.0000000  0.0000000 )
                  (  0.0000000  1.0000000  0.0000000 )


      isym = 22     120 deg rotation - cart. axis [-1,1,-1]      

 cryst.   s(22) = (     0          0         -1      )
                  (     0          1         -1      )
                  (     1          0         -1      )

 cart.    s(22) = (  0.0000000  0.0000000  1.0000000 )
                  ( -1.0000000  0.0000000  0.0000000 )
                  (  0.0000000 -1.0000000  0.0000000 )


      isym = 23     120 deg rotation - cart. axis [1,-1,-1]      

 cryst.   s(23) = (    -1          1          0      )
                  (    -1          0          0      )
                  (    -1          0          1      )

 cart.    s(23) = (  0.0000000  0.0000000 -1.0000000 )
                  ( -1.0000000  0.0000000  0.0000000 )
                  (  0.0000000  1.0000000  0.0000000 )


      isym = 24     120 deg rotation - cart. axis [-1,-1,1]      

 cryst.   s(24) = (     1         -1          0      )
                  (     0         -1          1      )
                  (     0         -1          0      )

 cart.    s(24) = (  0.0000000  0.0000000 -1.0000000 )
                  (  1.0000000  0.0000000  0.0000000 )
                  (  0.0000000 -1.0000000  0.0000000 )


      isym = 25     inversion                                    

 cryst.   s(25) = (    -1          0          0      )    f =( -0.2500000 )
                  (     0         -1          0      )       ( -0.2500000 )
                  (     0          0         -1      )       ( -0.2500000 )

 cart.    s(25) = ( -1.0000000  0.0000000  0.0000000 )    f =( -0.2500000 )
                  (  0.0000000 -1.0000000  0.0000000 )       ( -0.2500000 )
                  (  0.0000000  0.0000000 -1.0000000 )       ( -0.2500000 )


      isym = 26     inv. 180 deg rotation - cart. axis [0,0,1]   

 cryst.   s(26) = (     1          0          0      )    f =( -0.2500000 )
                  (     1          0         -1      )       ( -0.2500000 )
                  (     1         -1          0      )       ( -0.2500000 )

 cart.    s(26) = (  1.0000000  0.0000000  0.0000000 )    f =( -0.2500000 )
                  (  0.0000000  1.0000000  0.0000000 )       ( -0.2500000 )
                  (  0.0000000  0.0000000 -1.0000000 )       ( -0.2500000 )


      isym = 27     inv. 180 deg rotation - cart. axis [0,1,0]   

 cryst.   s(27) = (     0          1         -1      )    f =( -0.2500000 )
                  (     0          1          0      )       ( -0.2500000 )
                  (    -1          1          0      )       ( -0.2500000 )

 cart.    s(27) = (  1.0000000  0.0000000  0.0000000 )    f =( -0.2500000 )
                  (  0.0000000 -1.0000000  0.0000000 )       ( -0.2500000 )
                  (  0.0000000  0.0000000  1.0000000 )       ( -0.2500000 )


      isym = 28     inv. 180 deg rotation - cart. axis [1,0,0]   

 cryst.   s(28) = (     0         -1          1      )    f =( -0.2500000 )
                  (    -1          0          1      )       ( -0.2500000 )
                  (     0          0          1      )       ( -0.2500000 )

 cart.    s(28) = ( -1.0000000  0.0000000  0.0000000 )    f =( -0.2500000 )
                  (  0.0000000  1.0000000  0.0000000 )       ( -0.2500000 )
                  (  0.0000000  0.0000000  1.0000000 )       ( -0.2500000 )


      isym = 29     inv. 180 deg rotation - cart. axis [1,1,0]   

 cryst.   s(29) = (    -1          0          0      )
                  (    -1          1          0      )
                  (    -1          0          1      )

 cart.    s(29) = (  0.0000000 -1.0000000  0.0000000 )
                  ( -1.0000000  0.0000000  0.0000000 )
                  (  0.0000000  0.0000000  1.0000000 )


      isym = 30     inv. 180 deg rotation - cart. axis [1,-1,0]  

 cryst.   s(30) = (     1          0          0      )
                  (     0          0          1      )
                  (     0          1          0      )

 cart.    s(30) = (  0.0000000  1.0000000  0.0000000 )
                  (  1.0000000  0.0000000  0.0000000 )
                  (  0.0000000  0.0000000  1.0000000 )


      isym = 31     inv.  90 deg rotation - cart. axis [0,0,-1]  

 cryst.   s(31) = (     0         -1          1      )
                  (     1         -1          0      )
                  (     0         -1          0      )

 cart.    s(31) = (  0.0000000 -1.0000000  0.0000000 )
                  (  1.0000000  0.0000000  0.0000000 )
                  (  0.0000000  0.0000000 -1.0000000 )


      isym = 32     inv.  90 deg rotation - cart. axis [0,0,1]   

 cryst.   s(32) = (     0          1         -1      )
                  (     0          0         -1      )
                  (     1          0         -1      )

 cart.    s(32) = (  0.0000000  1.0000000  0.0000000 )
                  ( -1.0000000  0.0000000  0.0000000 )
                  (  0.0000000  0.0000000 -1.0000000 )


      isym = 33     inv. 180 deg rotation - cart. axis [1,0,1]   

 cryst.   s(33) = (     1         -1          0      )
                  (     0         -1          0      )
                  (     0         -1          1      )

 cart.    s(33) = (  0.0000000  0.0000000 -1.0000000 )
                  (  0.0000000  1.0000000  0.0000000 )
                  ( -1.0000000  0.0000000  0.0000000 )


      isym = 34     inv. 180 deg rotation - cart. axis [-1,0,1]  

 cryst.   s(34) = (     0          0          1      )
                  (     0          1          0      )
                  (     1          0          0      )

 cart.    s(34) = (  0.0000000  0.0000000  1.0000000 )
                  (  0.0000000  1.0000000  0.0000000 )
                  (  1.0000000  0.0000000  0.0000000 )


      isym = 35     inv.  90 deg rotation - cart. axis [0,1,0]   

 cryst.   s(35) = (    -1          1          0      )
                  (    -1          0          1      )
                  (    -1          0          0      )

 cart.    s(35) = (  0.0000000  0.0000000 -1.0000000 )
                  (  0.0000000 -1.0000000  0.0000000 )
                  (  1.0000000  0.0000000  0.0000000 )


      isym = 36     inv.  90 deg rotation - cart. axis [0,-1,0]  

 cryst.   s(36) = (     0          0         -1      )
                  (     1          0         -1      )
                  (     0          1         -1      )

 cart.    s(36) = (  0.0000000  0.0000000  1.0000000 )
                  (  0.0000000 -1.0000000  0.0000000 )
                  ( -1.0000000  0.0000000  0.0000000 )


      isym = 37     inv. 180 deg rotation - cart. axis [0,1,1]   

 cryst.   s(37) = (     1          0         -1      )
                  (     0          1         -1      )
                  (     0          0         -1      )

 cart.    s(37) = (  1.0000000  0.0000000  0.0000000 )
                  (  0.0000000  0.0000000 -1.0000000 )
                  (  0.0000000 -1.0000000  0.0000000 )


      isym = 38     inv. 180 deg rotation - cart. axis [0,1,-1]  

 cryst.   s(38) = (     0          1          0      )
                  (     1          0          0      )
                  (     0          0          1      )

 cart.    s(38) = (  1.0000000  0.0000000  0.0000000 )
                  (  0.0000000  0.0000000  1.0000000 )
                  (  0.0000000  1.0000000  0.0000000 )


      isym = 39     inv.  90 deg rotation - cart. axis [-1,0,0]  

 cryst.   s(39) = (    -1          0          1      )
                  (    -1          0          0      )
                  (    -1          1          0      )

 cart.    s(39) = ( -1.0000000  0.0000000  0.0000000 )
                  (  0.0000000  0.0000000 -1.0000000 )
                  (  0.0000000  1.0000000  0.0000000 )


      isym = 40     inv.  90 deg rotation - cart. axis [1,0,0]   

 cryst.   s(40) = (     0         -1          0      )
                  (     0         -1          1      )
                  (     1         -1          0      )

 cart.    s(40) = ( -1.0000000  0.0000000  0.0000000 )
                  (  0.0000000  0.0000000  1.0000000 )
                  (  0.0000000 -1.0000000  0.0000000 )


      isym = 41     inv. 120 deg rotation - cart. axis [-1,-1,-1]

 cryst.   s(41) = (     0         -1          0      )    f =( -0.2500000 )
                  (     0          0         -1      )       ( -0.2500000 )
                  (    -1          0          0      )       ( -0.2500000 )

 cart.    s(41) = (  0.0000000 -1.0000000  0.0000000 )    f =( -0.2500000 )
                  (  0.0000000  0.0000000 -1.0000000 )       ( -0.2500000 )
                  ( -1.0000000  0.0000000  0.0000000 )       ( -0.2500000 )


      isym = 42     inv. 120 deg rotation - cart. axis [-1,1,1]  

 cryst.   s(42) = (     0          1          0      )    f =( -0.2500000 )
                  (    -1          1          0      )       ( -0.2500000 )
                  (     0          1         -1      )       ( -0.2500000 )

 cart.    s(42) = (  0.0000000  1.0000000  0.0000000 )    f =( -0.2500000 )
                  (  0.0000000  0.0000000 -1.0000000 )       ( -0.2500000 )
                  (  1.0000000  0.0000000  0.0000000 )       ( -0.2500000 )


      isym = 43     inv. 120 deg rotation - cart. axis [1,1,-1]  

 cryst.   s(43) = (    -1          0          1      )    f =( -0.2500000 )
                  (     0          0          1      )       ( -0.2500000 )
                  (     0         -1          1      )       ( -0.2500000 )

 cart.    s(43) = (  0.0000000 -1.0000000  0.0000000 )    f =( -0.2500000 )
                  (  0.0000000  0.0000000  1.0000000 )       ( -0.2500000 )
                  (  1.0000000  0.0000000  0.0000000 )       ( -0.2500000 )


      isym = 44     inv. 120 deg rotation - cart. axis [1,-1,1]  

 cryst.   s(44) = (     1          0         -1      )    f =( -0.2500000 )
                  (     1         -1          0      )       ( -0.2500000 )
                  (     1          0          0      )       ( -0.2500000 )

 cart.    s(44) = (  0.0000000  1.0000000  0.0000000 )    f =( -0.2500000 )
                  (  0.0000000  0.0000000  1.0000000 )       ( -0.2500000 )
                  ( -1.0000000  0.0000000  0.0000000 )       ( -0.2500000 )


      isym = 45     inv. 120 deg rotation - cart. axis [1,1,1]   

 cryst.   s(45) = (     0          0         -1      )    f =( -0.2500000 )
                  (    -1          0          0      )       ( -0.2500000 )
                  (     0         -1          0      )       ( -0.2500000 )

 cart.    s(45) = (  0.0000000  0.0000000 -1.0000000 )    f =( -0.2500000 )
                  ( -1.0000000  0.0000000  0.0000000 )       ( -0.2500000 )
                  (  0.0000000 -1.0000000  0.0000000 )       ( -0.2500000 )


      isym = 46     inv. 120 deg rotation - cart. axis [-1,1,-1] 

 cryst.   s(46) = (     0          0          1      )    f =( -0.2500000 )
                  (     0         -1          1      )       ( -0.2500000 )
                  (    -1          0          1      )       ( -0.2500000 )

 cart.    s(46) = (  0.0000000  0.0000000 -1.0000000 )    f =( -0.2500000 )
                  (  1.0000000  0.0000000  0.0000000 )       ( -0.2500000 )
                  (  0.0000000  1.0000000  0.0000000 )       ( -0.2500000 )


      isym = 47     inv. 120 deg rotation - cart. axis [1,-1,-1] 

 cryst.   s(47) = (     1         -1          0      )    f =( -0.2500000 )
                  (     1          0          0      )       ( -0.2500000 )
                  (     1          0         -1      )       ( -0.2500000 )

 cart.    s(47) = (  0.0000000  0.0000000  1.0000000 )    f =( -0.2500000 )
                  (  1.0000000  0.0000000  0.0000000 )       ( -0.2500000 )
                  (  0.0000000 -1.0000000  0.0000000 )       ( -0.2500000 )


      isym = 48     inv. 120 deg rotation - cart. axis [-1,-1,1] 

 cryst.   s(48) = (    -1          1          0      )    f =( -0.2500000 )
                  (     0          1         -1      )       ( -0.2500000 )
                  (     0          1          0      )       ( -0.2500000 )

 cart.    s(48) = (  0.0000000  0.0000000  1.0000000 )    f =( -0.2500000 )
                  ( -1.0000000  0.0000000  0.0000000 )       ( -0.2500000 )
                  (  0.0000000  1.0000000  0.0000000 )       ( -0.2500000 )


   Cartesian axes

     site n.     atom                  positions (alat units)
         1           Ge  tau(   1) = (   0.0000000   0.0000000   0.0000000  )
         2           Ge  tau(   2) = (   0.2500000   0.2500000   0.2500000  )

   Crystallographic axes

     site n.     atom                  positions (cryst. coord.)
         1           Ge  tau(   1) = (  0.0000000  0.0000000  0.0000000  )
         2           Ge  tau(   2) = (  0.2500000  0.2500000  0.2500000  )

     number of k points=    81  Marzari-Vanderbilt smearing, width (Ry)=  0.0050
                       cart. coord. in units 2pi/alat
        k(    1) = (   0.5000000   0.5000000   0.5000000), wk =   0.0123457
        k(    2) = (   0.4750000   0.4750000   0.4750000), wk =   0.0123457
        k(    3) = (   0.4500000   0.4500000   0.4500000), wk =   0.0123457
        k(    4) = (   0.4250000   0.4250000   0.4250000), wk =   0.0123457
        k(    5) = (   0.4000000   0.4000000   0.4000000), wk =   0.0123457
        k(    6) = (   0.3750000   0.3750000   0.3750000), wk =   0.0123457
        k(    7) = (   0.3500000   0.3500000   0.3500000), wk =   0.0123457
        k(    8) = (   0.3250000   0.3250000   0.3250000), wk =   0.0123457
        k(    9) = (   0.3000000   0.3000000   0.3000000), wk =   0.0123457
        k(   10) = (   0.2750000   0.2750000   0.2750000), wk =   0.0123457
        k(   11) = (   0.2500000   0.2500000   0.2500000), wk =   0.0123457
        k(   12) = (   0.2250000   0.2250000   0.2250000), wk =   0.0123457
        k(   13) = (   0.2000000   0.2000000   0.2000000), wk =   0.0123457
        k(   14) = (   0.1750000   0.1750000   0.1750000), wk =   0.0123457
        k(   15) = (   0.1500000   0.1500000   0.1500000), wk =   0.0123457
        k(   16) = (   0.1250000   0.1250000   0.1250000), wk =   0.0123457
        k(   17) = (   0.1000000   0.1000000   0.1000000), wk =   0.0123457
        k(   18) = (   0.0750000   0.0750000   0.0750000), wk =   0.0123457
        k(   19) = (   0.0500000   0.0500000   0.0500000), wk =   0.0123457
        k(   20) = (   0.0250000   0.0250000   0.0250000), wk =   0.0123457
        k(   21) = (   0.0000000   0.0000000   0.0000000), wk =   0.0123457
        k(   22) = (   0.0000000   0.0500000   0.0000000), wk =   0.0123457
        k(   23) = (   0.0000000   0.1000000   0.0000000), wk =   0.0123457
        k(   24) = (   0.0000000   0.1500000   0.0000000), wk =   0.0123457
        k(   25) = (   0.0000000   0.2000000   0.0000000), wk =   0.0123457
        k(   26) = (   0.0000000   0.2500000   0.0000000), wk =   0.0123457
        k(   27) = (   0.0000000   0.3000000   0.0000000), wk =   0.0123457
        k(   28) = (   0.0000000   0.3500000   0.0000000), wk =   0.0123457
        k(   29) = (   0.0000000   0.4000000   0.0000000), wk =   0.0123457
        k(   30) = (   0.0000000   0.4500000   0.0000000), wk =   0.0123457
        k(   31) = (   0.0000000   0.5000000   0.0000000), wk =   0.0123457
        k(   32) = (   0.0000000   0.5500000   0.0000000), wk =   0.0123457
        k(   33) = (   0.0000000   0.6000000   0.0000000), wk =   0.0123457
        k(   34) = (   0.0000000   0.6500000   0.0000000), wk =   0.0123457
        k(   35) = (   0.0000000   0.7000000   0.0000000), wk =   0.0123457
        k(   36) = (   0.0000000   0.7500000   0.0000000), wk =   0.0123457
        k(   37) = (   0.0000000   0.8000000   0.0000000), wk =   0.0123457
        k(   38) = (   0.0000000   0.8500000   0.0000000), wk =   0.0123457
        k(   39) = (   0.0000000   0.9000000   0.0000000), wk =   0.0123457
        k(   40) = (   0.0000000   0.9500000   0.0000000), wk =   0.0123457
        k(   41) = (   0.0000000   1.0000000   0.0000000), wk =   0.0123457
        k(   42) = (   0.0000000   0.9875000   0.0375000), wk =   0.0123457
        k(   43) = (   0.0000000   0.9750000   0.0750000), wk =   0.0123457
        k(   44) = (   0.0000000   0.9625000   0.1125000), wk =   0.0123457
        k(   45) = (   0.0000000   0.9500000   0.1500000), wk =   0.0123457
        k(   46) = (  -0.0000000   0.9375000   0.1875000), wk =   0.0123457
        k(   47) = (   0.0000000   0.9250000   0.2250000), wk =   0.0123457
        k(   48) = (   0.0000000   0.9125000   0.2625000), wk =   0.0123457
        k(   49) = (   0.0000000   0.9000000   0.3000000), wk =   0.0123457
        k(   50) = (   0.0000000   0.8875000   0.3375000), wk =   0.0123457
        k(   51) = (   0.0000000   0.8750000   0.3750000), wk =   0.0123457
        k(   52) = (   0.0000000   0.8625000   0.4125000), wk =   0.0123457
        k(   53) = (   0.0000000   0.8500000   0.4500000), wk =   0.0123457
        k(   54) = (   0.0000000   0.8375000   0.4875000), wk =   0.0123457
        k(   55) = (  -0.0000000   0.8250000   0.5250000), wk =   0.0123457
        k(   56) = (   0.0000000   0.8125000   0.5625000), wk =   0.0123457
        k(   57) = (   0.0000000   0.8000000   0.6000000), wk =   0.0123457
        k(   58) = (   0.0000000   0.7875000   0.6375000), wk =   0.0123457
        k(   59) = (   0.0000000   0.7750000   0.6750000), wk =   0.0123457
        k(   60) = (   0.0000000   0.7625000   0.7125000), wk =   0.0123457
        k(   61) = (   0.0000000   0.7500000   0.7500000), wk =   0.0123457
        k(   62) = (   0.0000000   0.7125000   0.7125000), wk =   0.0123457
        k(   63) = (   0.0000000   0.6750000   0.6750000), wk =   0.0123457
        k(   64) = (   0.0000000   0.6375000   0.6375000), wk =   0.0123457
        k(   65) = (   0.0000000   0.6000000   0.6000000), wk =   0.0123457
        k(   66) = (   0.0000000   0.5625000   0.5625000), wk =   0.0123457
        k(   67) = (   0.0000000   0.5250000   0.5250000), wk =   0.0123457
        k(   68) = (   0.0000000   0.4875000   0.4875000), wk =   0.0123457
        k(   69) = (   0.0000000   0.4500000   0.4500000), wk =   0.0123457
        k(   70) = (   0.0000000   0.4125000   0.4125000), wk =   0.0123457
        k(   71) = (   0.0000000   0.3750000   0.3750000), wk =   0.0123457
        k(   72) = (   0.0000000   0.3375000   0.3375000), wk =   0.0123457
        k(   73) = (   0.0000000   0.3000000   0.3000000), wk =   0.0123457
        k(   74) = (   0.0000000   0.2625000   0.2625000), wk =   0.0123457
        k(   75) = (   0.0000000   0.2250000   0.2250000), wk =   0.0123457
        k(   76) = (   0.0000000   0.1875000   0.1875000), wk =   0.0123457
        k(   77) = (   0.0000000   0.1500000   0.1500000), wk =   0.0123457
        k(   78) = (   0.0000000   0.1125000   0.1125000), wk =   0.0123457
        k(   79) = (   0.0000000   0.0750000   0.0750000), wk =   0.0123457
        k(   80) = (   0.0000000   0.0375000   0.0375000), wk =   0.0123457
        k(   81) = (   0.0000000   0.0000000   0.0000000), wk =   0.0123457

                       cryst. coord.
        k(    1) = (   0.5000000   0.5000000   0.5000000), wk =   0.0123457
        k(    2) = (   0.4750000   0.4750000   0.4750000), wk =   0.0123457
        k(    3) = (   0.4500000   0.4500000   0.4500000), wk =   0.0123457
        k(    4) = (   0.4250000   0.4250000   0.4250000), wk =   0.0123457
        k(    5) = (   0.4000000   0.4000000   0.4000000), wk =   0.0123457
        k(    6) = (   0.3750000   0.3750000   0.3750000), wk =   0.0123457
        k(    7) = (   0.3500000   0.3500000   0.3500000), wk =   0.0123457
        k(    8) = (   0.3250000   0.3250000   0.3250000), wk =   0.0123457
        k(    9) = (   0.3000000   0.3000000   0.3000000), wk =   0.0123457
        k(   10) = (   0.2750000   0.2750000   0.2750000), wk =   0.0123457
        k(   11) = (   0.2500000   0.2500000   0.2500000), wk =   0.0123457
        k(   12) = (   0.2250000   0.2250000   0.2250000), wk =   0.0123457
        k(   13) = (   0.2000000   0.2000000   0.2000000), wk =   0.0123457
        k(   14) = (   0.1750000   0.1750000   0.1750000), wk =   0.0123457
        k(   15) = (   0.1500000   0.1500000   0.1500000), wk =   0.0123457
        k(   16) = (   0.1250000   0.1250000   0.1250000), wk =   0.0123457
        k(   17) = (   0.1000000   0.1000000   0.1000000), wk =   0.0123457
        k(   18) = (   0.0750000   0.0750000   0.0750000), wk =   0.0123457
        k(   19) = (   0.0500000   0.0500000   0.0500000), wk =   0.0123457
        k(   20) = (   0.0250000   0.0250000   0.0250000), wk =   0.0123457
        k(   21) = (   0.0000000   0.0000000   0.0000000), wk =   0.0123457
        k(   22) = (   0.0250000   0.0000000   0.0250000), wk =   0.0123457
        k(   23) = (   0.0500000   0.0000000   0.0500000), wk =   0.0123457
        k(   24) = (   0.0750000   0.0000000   0.0750000), wk =   0.0123457
        k(   25) = (   0.1000000   0.0000000   0.1000000), wk =   0.0123457
        k(   26) = (   0.1250000   0.0000000   0.1250000), wk =   0.0123457
        k(   27) = (   0.1500000   0.0000000   0.1500000), wk =   0.0123457
        k(   28) = (   0.1750000   0.0000000   0.1750000), wk =   0.0123457
        k(   29) = (   0.2000000   0.0000000   0.2000000), wk =   0.0123457
        k(   30) = (   0.2250000   0.0000000   0.2250000), wk =   0.0123457
        k(   31) = (   0.2500000   0.0000000   0.2500000), wk =   0.0123457
        k(   32) = (   0.2750000   0.0000000   0.2750000), wk =   0.0123457
        k(   33) = (   0.3000000   0.0000000   0.3000000), wk =   0.0123457
        k(   34) = (   0.3250000   0.0000000   0.3250000), wk =   0.0123457
        k(   35) = (   0.3500000   0.0000000   0.3500000), wk =   0.0123457
        k(   36) = (   0.3750000   0.0000000   0.3750000), wk =   0.0123457
        k(   37) = (   0.4000000   0.0000000   0.4000000), wk =   0.0123457
        k(   38) = (   0.4250000   0.0000000   0.4250000), wk =   0.0123457
        k(   39) = (   0.4500000   0.0000000   0.4500000), wk =   0.0123457
        k(   40) = (   0.4750000   0.0000000   0.4750000), wk =   0.0123457
        k(   41) = (   0.5000000   0.0000000   0.5000000), wk =   0.0123457
        k(   42) = (   0.4937500   0.0187500   0.5125000), wk =   0.0123457
        k(   43) = (   0.4875000   0.0375000   0.5250000), wk =   0.0123457
        k(   44) = (   0.4812500   0.0562500   0.5375000), wk =   0.0123457
        k(   45) = (   0.4750000   0.0750000   0.5500000), wk =   0.0123457
        k(   46) = (   0.4687500   0.0937500   0.5625000), wk =   0.0123457
        k(   47) = (   0.4625000   0.1125000   0.5750000), wk =   0.0123457
        k(   48) = (   0.4562500   0.1312500   0.5875000), wk =   0.0123457
        k(   49) = (   0.4500000   0.1500000   0.6000000), wk =   0.0123457
        k(   50) = (   0.4437500   0.1687500   0.6125000), wk =   0.0123457
        k(   51) = (   0.4375000   0.1875000   0.6250000), wk =   0.0123457
        k(   52) = (   0.4312500   0.2062500   0.6375000), wk =   0.0123457
        k(   53) = (   0.4250000   0.2250000   0.6500000), wk =   0.0123457
        k(   54) = (   0.4187500   0.2437500   0.6625000), wk =   0.0123457
        k(   55) = (   0.4125000   0.2625000   0.6750000), wk =   0.0123457
        k(   56) = (   0.4062500   0.2812500   0.6875000), wk =   0.0123457
        k(   57) = (   0.4000000   0.3000000   0.7000000), wk =   0.0123457
        k(   58) = (   0.3937500   0.3187500   0.7125000), wk =   0.0123457
        k(   59) = (   0.3875000   0.3375000   0.7250000), wk =   0.0123457
        k(   60) = (   0.3812500   0.3562500   0.7375000), wk =   0.0123457
        k(   61) = (   0.3750000   0.3750000   0.7500000), wk =   0.0123457
        k(   62) = (   0.3562500   0.3562500   0.7125000), wk =   0.0123457
        k(   63) = (   0.3375000   0.3375000   0.6750000), wk =   0.0123457
        k(   64) = (   0.3187500   0.3187500   0.6375000), wk =   0.0123457
        k(   65) = (   0.3000000   0.3000000   0.6000000), wk =   0.0123457
        k(   66) = (   0.2812500   0.2812500   0.5625000), wk =   0.0123457
        k(   67) = (   0.2625000   0.2625000   0.5250000), wk =   0.0123457
        k(   68) = (   0.2437500   0.2437500   0.4875000), wk =   0.0123457
        k(   69) = (   0.2250000   0.2250000   0.4500000), wk =   0.0123457
        k(   70) = (   0.2062500   0.2062500   0.4125000), wk =   0.0123457
        k(   71) = (   0.1875000   0.1875000   0.3750000), wk =   0.0123457
        k(   72) = (   0.1687500   0.1687500   0.3375000), wk =   0.0123457
        k(   73) = (   0.1500000   0.1500000   0.3000000), wk =   0.0123457
        k(   74) = (   0.1312500   0.1312500   0.2625000), wk =   0.0123457
        k(   75) = (   0.1125000   0.1125000   0.2250000), wk =   0.0123457
        k(   76) = (   0.0937500   0.0937500   0.1875000), wk =   0.0123457
        k(   77) = (   0.0750000   0.0750000   0.1500000), wk =   0.0123457
        k(   78) = (   0.0562500   0.0562500   0.1125000), wk =   0.0123457
        k(   79) = (   0.0375000   0.0375000   0.0750000), wk =   0.0123457
        k(   80) = (   0.0187500   0.0187500   0.0375000), wk =   0.0123457
        k(   81) = (   0.0000000   0.0000000   0.0000000), wk =   0.0123457

     Dense  grid:    14553 G-vectors     FFT dimensions: (  36,  36,  36)

     Dynamical RAM for                 wfc:       0.11 MB

     Dynamical RAM for     wfc (w. buffer):       0.11 MB

     Dynamical RAM for           str. fact:       0.11 MB

     Dynamical RAM for           local pot:       0.00 MB

     Dynamical RAM for          nlocal pot:       0.22 MB

     Dynamical RAM for                qrad:       0.32 MB

     Dynamical RAM for          rho,v,vnew:       1.73 MB

     Dynamical RAM for           G-vectors:       0.47 MB

     Dynamical RAM for          h,s,v(r/c):       0.05 MB

     Dynamical RAM for          <psi|beta>:       0.00 MB

     Dynamical RAM for                 psi:       0.45 MB

     Dynamical RAM for                hpsi:       0.45 MB

     Dynamical RAM for                spsi:       0.45 MB

     Dynamical RAM for      wfcinit/wfcrot:       0.22 MB

     Dynamical RAM for           addusdens:       5.11 MB

     Estimated static dynamical RAM per process >       4.27 MB

     Estimated max dynamical RAM per process >       9.37 MB

     Estimated total dynamical RAM >      18.75 MB
     Generating pointlists ...
     new r_m :   0.1786 (alat units)  1.9096 (a.u.) for type    1

     The potential is recalculated from file :
     ./outputs/ge.save/charge-density

     Starting wfcs are    8 randomized atomic wfcs
     Checking if some PAW data can be deallocated... 

     Band Structure Calculation
     Davidson diagonalization with overlap

     Computing kpt #:     1  of   162
     total cpu time spent up to now is        1.0 secs

     Computing kpt #:     2  of   162
     total cpu time spent up to now is        1.1 secs

     Computing kpt #:     3  of   162
     total cpu time spent up to now is        1.2 secs

     Computing kpt #:     4  of   162
     total cpu time spent up to now is        1.3 secs

     Computing kpt #:     5  of   162
     total cpu time spent up to now is        1.4 secs

     Computing kpt #:     6  of   162
     total cpu time spent up to now is        1.5 secs

     Computing kpt #:     7  of   162
     total cpu time spent up to now is        1.7 secs

     Computing kpt #:     8  of   162
     total cpu time spent up to now is        1.8 secs

     Computing kpt #:     9  of   162
     total cpu time spent up to now is        1.8 secs

     Computing kpt #:    10  of   162
     total cpu time spent up to now is        1.9 secs

     Computing kpt #:    11  of   162
     total cpu time spent up to now is        2.1 secs

     Computing kpt #:    12  of   162
     total cpu time spent up to now is        2.2 secs

     Computing kpt #:    13  of   162
     total cpu time spent up to now is        2.2 secs

     Computing kpt #:    14  of   162
     total cpu time spent up to now is        2.3 secs

     Computing kpt #:    15  of   162
     total cpu time spent up to now is        2.4 secs

     Computing kpt #:    16  of   162
     total cpu time spent up to now is        2.4 secs

     Computing kpt #:    17  of   162
     total cpu time spent up to now is        2.5 secs

     Computing kpt #:    18  of   162
     total cpu time spent up to now is        2.6 secs

     Computing kpt #:    19  of   162
     total cpu time spent up to now is        2.6 secs

     Computing kpt #:    20  of   162
     total cpu time spent up to now is        2.7 secs

     Computing kpt #:    21  of   162
     total cpu time spent up to now is        2.7 secs

     Computing kpt #:    22  of   162
     total cpu time spent up to now is        2.8 secs

     Computing kpt #:    23  of   162
     total cpu time spent up to now is        2.9 secs

     Computing kpt #:    24  of   162
     total cpu time spent up to now is        2.9 secs

     Computing kpt #:    25  of   162
     total cpu time spent up to now is        3.0 secs

     Computing kpt #:    26  of   162
     total cpu time spent up to now is        3.2 secs

     Computing kpt #:    27  of   162
     total cpu time spent up to now is        3.3 secs

     Computing kpt #:    28  of   162
     total cpu time spent up to now is        3.5 secs

     Computing kpt #:    29  of   162
     total cpu time spent up to now is        3.6 secs

     Computing kpt #:    30  of   162
     total cpu time spent up to now is        3.8 secs

     Computing kpt #:    31  of   162
     total cpu time spent up to now is        3.8 secs

     Computing kpt #:    32  of   162
     total cpu time spent up to now is        3.9 secs

     Computing kpt #:    33  of   162
     total cpu time spent up to now is        4.1 secs

     Computing kpt #:    34  of   162
     total cpu time spent up to now is        4.2 secs

     Computing kpt #:    35  of   162
     total cpu time spent up to now is        4.3 secs

     Computing kpt #:    36  of   162
     total cpu time spent up to now is        4.4 secs

     Computing kpt #:    37  of   162
     total cpu time spent up to now is        4.5 secs

     Computing kpt #:    38  of   162
     total cpu time spent up to now is        4.7 secs

     Computing kpt #:    39  of   162
     total cpu time spent up to now is        4.8 secs

     Computing kpt #:    40  of   162
     total cpu time spent up to now is        4.9 secs

     Computing kpt #:    41  of   162
     total cpu time spent up to now is        5.1 secs

     Computing kpt #:    42  of   162
     total cpu time spent up to now is        5.2 secs

     Computing kpt #:    43  of   162
     total cpu time spent up to now is        5.4 secs

     Computing kpt #:    44  of   162
     total cpu time spent up to now is        5.5 secs

     Computing kpt #:    45  of   162
     total cpu time spent up to now is        5.7 secs

     Computing kpt #:    46  of   162
     total cpu time spent up to now is        5.8 secs

     Computing kpt #:    47  of   162
     total cpu time spent up to now is        5.9 secs

     Computing kpt #:    48  of   162
     total cpu time spent up to now is        6.1 secs

     Computing kpt #:    49  of   162
     total cpu time spent up to now is        6.2 secs

     Computing kpt #:    50  of   162
     total cpu time spent up to now is        6.4 secs

     Computing kpt #:    51  of   162
     total cpu time spent up to now is        6.5 secs

     Computing kpt #:    52  of   162
     total cpu time spent up to now is        6.7 secs

     Computing kpt #:    53  of   162
     total cpu time spent up to now is        6.7 secs

     Computing kpt #:    54  of   162
     total cpu time spent up to now is        6.9 secs

     Computing kpt #:    55  of   162
     total cpu time spent up to now is        7.0 secs

     Computing kpt #:    56  of   162
     total cpu time spent up to now is        7.1 secs

     Computing kpt #:    57  of   162
     total cpu time spent up to now is        7.3 secs

     Computing kpt #:    58  of   162
     total cpu time spent up to now is        7.5 secs

     Computing kpt #:    59  of   162
     total cpu time spent up to now is        7.6 secs

     Computing kpt #:    60  of   162
     total cpu time spent up to now is        7.8 secs

     Computing kpt #:    61  of   162
     total cpu time spent up to now is        7.9 secs

     Computing kpt #:    62  of   162
     total cpu time spent up to now is        8.2 secs

     Computing kpt #:    63  of   162
     total cpu time spent up to now is        8.3 secs

     Computing kpt #:    64  of   162
     total cpu time spent up to now is        8.4 secs

     Computing kpt #:    65  of   162
     total cpu time spent up to now is        8.5 secs

     Computing kpt #:    66  of   162
     total cpu time spent up to now is        8.7 secs

     Computing kpt #:    67  of   162
     total cpu time spent up to now is        8.8 secs

     Computing kpt #:    68  of   162
     total cpu time spent up to now is        8.9 secs

     Computing kpt #:    69  of   162
     total cpu time spent up to now is        9.1 secs

     Computing kpt #:    70  of   162
     total cpu time spent up to now is        9.3 secs

     Computing kpt #:    71  of   162
     total cpu time spent up to now is        9.5 secs

     Computing kpt #:    72  of   162
     total cpu time spent up to now is        9.6 secs

     Computing kpt #:    73  of   162
     total cpu time spent up to now is        9.7 secs

     Computing kpt #:    74  of   162
     total cpu time spent up to now is        9.8 secs

     Computing kpt #:    75  of   162
     total cpu time spent up to now is       10.0 secs

     Computing kpt #:    76  of   162
     total cpu time spent up to now is       10.2 secs

     Computing kpt #:    77  of   162
     total cpu time spent up to now is       10.3 secs

     Computing kpt #:    78  of   162
     total cpu time spent up to now is       10.4 secs

     Computing kpt #:    79  of   162
     total cpu time spent up to now is       10.5 secs

     Computing kpt #:    80  of   162
     total cpu time spent up to now is       10.7 secs

     Computing kpt #:    81  of   162
     total cpu time spent up to now is       10.8 secs

     Computing kpt #:    82  of   162
     total cpu time spent up to now is       10.9 secs

     Computing kpt #:    83  of   162
     total cpu time spent up to now is       11.0 secs

     Computing kpt #:    84  of   162
     total cpu time spent up to now is       11.1 secs

     Computing kpt #:    85  of   162
     total cpu time spent up to now is       11.2 secs

     Computing kpt #:    86  of   162
     total cpu time spent up to now is       11.4 secs

     Computing kpt #:    87  of   162
     total cpu time spent up to now is       11.5 secs

     Computing kpt #:    88  of   162
     total cpu time spent up to now is       11.6 secs

     Computing kpt #:    89  of   162
     total cpu time spent up to now is       11.8 secs

     Computing kpt #:    90  of   162
     total cpu time spent up to now is       12.0 secs

     Computing kpt #:    91  of   162
     total cpu time spent up to now is       12.1 secs

     Computing kpt #:    92  of   162
     total cpu time spent up to now is       12.2 secs

     Computing kpt #:    93  of   162
     total cpu time spent up to now is       12.3 secs

     Computing kpt #:    94  of   162
     total cpu time spent up to now is       12.5 secs

     Computing kpt #:    95  of   162
     total cpu time spent up to now is       12.7 secs

     Computing kpt #:    96  of   162
     total cpu time spent up to now is       12.7 secs

     Computing kpt #:    97  of   162
     total cpu time spent up to now is       12.9 secs

     Computing kpt #:    98  of   162
     total cpu time spent up to now is       13.0 secs

     Computing kpt #:    99  of   162
     total cpu time spent up to now is       13.1 secs

     Computing kpt #:   100  of   162
     total cpu time spent up to now is       13.2 secs

     Computing kpt #:   101  of   162
     total cpu time spent up to now is       13.3 secs

     Computing kpt #:   102  of   162
     total cpu time spent up to now is       13.4 secs

     Computing kpt #:   103  of   162
     total cpu time spent up to now is       13.5 secs

     Computing kpt #:   104  of   162
     total cpu time spent up to now is       13.6 secs

     Computing kpt #:   105  of   162
     total cpu time spent up to now is       13.8 secs

     Computing kpt #:   106  of   162
     total cpu time spent up to now is       13.9 secs

     Computing kpt #:   107  of   162
     total cpu time spent up to now is       14.0 secs

     Computing kpt #:   108  of   162
     total cpu time spent up to now is       14.1 secs

     Computing kpt #:   109  of   162
     total cpu time spent up to now is       14.2 secs

     Computing kpt #:   110  of   162
     total cpu time spent up to now is       14.4 secs

     Computing kpt #:   111  of   162
     total cpu time spent up to now is       14.4 secs

     Computing kpt #:   112  of   162
     total cpu time spent up to now is       14.5 secs

     Computing kpt #:   113  of   162
     total cpu time spent up to now is       14.7 secs

     Computing kpt #:   114  of   162
     total cpu time spent up to now is       14.8 secs

     Computing kpt #:   115  of   162
     total cpu time spent up to now is       14.9 secs

     Computing kpt #:   116  of   162
     total cpu time spent up to now is       15.1 secs

     Computing kpt #:   117  of   162
     total cpu time spent up to now is       15.2 secs

     Computing kpt #:   118  of   162
     total cpu time spent up to now is       15.3 secs

     Computing kpt #:   119  of   162
     total cpu time spent up to now is       15.4 secs

     Computing kpt #:   120  of   162
     total cpu time spent up to now is       15.6 secs

     Computing kpt #:   121  of   162
     total cpu time spent up to now is       15.7 secs

     Computing kpt #:   122  of   162
     total cpu time spent up to now is       15.8 secs

     Computing kpt #:   123  of   162
     total cpu time spent up to now is       16.0 secs

     Computing kpt #:   124  of   162
     total cpu time spent up to now is       16.1 secs

     Computing kpt #:   125  of   162
     total cpu time spent up to now is       16.2 secs

     Computing kpt #:   126  of   162
     total cpu time spent up to now is       16.3 secs

     Computing kpt #:   127  of   162
     total cpu time spent up to now is       16.5 secs

     Computing kpt #:   128  of   162
     total cpu time spent up to now is       16.6 secs

     Computing kpt #:   129  of   162
     total cpu time spent up to now is       16.8 secs

     Computing kpt #:   130  of   162
     total cpu time spent up to now is       17.0 secs

     Computing kpt #:   131  of   162
     total cpu time spent up to now is       17.2 secs

     Computing kpt #:   132  of   162
     total cpu time spent up to now is       17.2 secs

     Computing kpt #:   133  of   162
     total cpu time spent up to now is       17.3 secs

     Computing kpt #:   134  of   162
     total cpu time spent up to now is       17.4 secs

     Computing kpt #:   135  of   162
     total cpu time spent up to now is       17.6 secs

     Computing kpt #:   136  of   162
     total cpu time spent up to now is       17.6 secs

     Computing kpt #:   137  of   162
     total cpu time spent up to now is       17.7 secs

     Computing kpt #:   138  of   162
     total cpu time spent up to now is       17.8 secs

     Computing kpt #:   139  of   162
     total cpu time spent up to now is       17.8 secs

     Computing kpt #:   140  of   162
     total cpu time spent up to now is       17.9 secs

     Computing kpt #:   141  of   162
     total cpu time spent up to now is       18.0 secs

     Computing kpt #:   142  of   162
     total cpu time spent up to now is       18.0 secs

     Computing kpt #:   143  of   162
     total cpu time spent up to now is       18.1 secs

     Computing kpt #:   144  of   162
     total cpu time spent up to now is       18.2 secs

     Computing kpt #:   145  of   162
     total cpu time spent up to now is       18.4 secs

     Computing kpt #:   146  of   162
     total cpu time spent up to now is       18.4 secs

     Computing kpt #:   147  of   162
     total cpu time spent up to now is       18.5 secs

     Computing kpt #:   148  of   162
     total cpu time spent up to now is       18.6 secs

     Computing kpt #:   149  of   162
     total cpu time spent up to now is       18.6 secs

     Computing kpt #:   150  of   162
     total cpu time spent up to now is       18.7 secs

     Computing kpt #:   151  of   162
     total cpu time spent up to now is       18.8 secs

     Computing kpt #:   152  of   162
     total cpu time spent up to now is       18.8 secs

     Computing kpt #:   153  of   162
     total cpu time spent up to now is       18.9 secs

     Computing kpt #:   154  of   162
     total cpu time spent up to now is       19.0 secs

     Computing kpt #:   155  of   162
     total cpu time spent up to now is       19.0 secs

     Computing kpt #:   156  of   162
     total cpu time spent up to now is       19.1 secs

     Computing kpt #:   157  of   162
     total cpu time spent up to now is       19.2 secs

     Computing kpt #:   158  of   162
     total cpu time spent up to now is       19.3 secs

     Computing kpt #:   159  of   162
     total cpu time spent up to now is       19.5 secs

     Computing kpt #:   160  of   162
     total cpu time spent up to now is       19.8 secs

     Computing kpt #:   161  of   162
     total cpu time spent up to now is       20.0 secs

     Computing kpt #:   162  of   162
     total cpu time spent up to now is       20.2 secs

     ethr =  1.25E-10,  avg # of iterations = 13.3

     total cpu time spent up to now is       20.2 secs

     End of band structure calculation

 ------ SPIN UP ------------


          k = 0.5000 0.5000 0.5000 (  1850 PWs)   bands (ev):

    -4.8643  -1.7710   4.4276   4.4276   6.0208   9.5419   9.5419  13.1154

          k = 0.4750 0.4750 0.4750 (  1826 PWs)   bands (ev):

    -4.8920  -1.7277   4.4329   4.4329   6.0262   9.5446   9.5446  13.1229

          k = 0.4500 0.4500 0.4500 (  1823 PWs)   bands (ev):

    -4.9706  -1.6021   4.4488   4.4488   6.0425   9.5523   9.5523  13.1449

          k = 0.4250 0.4250 0.4250 (  1838 PWs)   bands (ev):

    -5.0889  -1.4056   4.4751   4.4751   6.0694   9.5638   9.5638  13.1782

          k = 0.4000 0.4000 0.4000 (  1832 PWs)   bands (ev):

    -5.2339  -1.1514   4.5119   4.5119   6.1070   9.5768   9.5768  13.2150

          k = 0.3750 0.3750 0.3750 (  1838 PWs)   bands (ev):

    -5.3942  -0.8509   4.5590   4.5590   6.1549   9.5883   9.5883  13.2310

          k = 0.3500 0.3500 0.3500 (  1847 PWs)   bands (ev):

    -5.5611  -0.5134   4.6162   4.6162   6.2128   9.5942   9.5942  13.1498

          k = 0.3250 0.3250 0.3250 (  1853 PWs)   bands (ev):

    -5.7283  -0.1453   4.6832   4.6832   6.2801   9.5898   9.5898  12.8687

          k = 0.3000 0.3000 0.3000 (  1841 PWs)   bands (ev):

    -5.8913   0.2484   4.7596   4.7596   6.3561   9.5698   9.5698  12.4583

          k = 0.2750 0.2750 0.2750 (  1835 PWs)   bands (ev):

    -6.0471   0.6639   4.8449   4.8449   6.4397   9.5293   9.5293  12.0088

          k = 0.2500 0.2500 0.2500 (  1847 PWs)   bands (ev):

    -6.1934   1.0984   4.9383   4.9383   6.5292   9.4647   9.4647  11.5500

          k = 0.2250 0.2250 0.2250 (  1832 PWs)   bands (ev):

    -6.3287   1.5493   5.0390   5.0390   6.6223   9.3748   9.3748  11.0916

          k = 0.2000 0.2000 0.2000 (  1841 PWs)   bands (ev):

    -6.4518   2.0144   5.1454   5.1454   6.7151   9.2614   9.2614  10.6378

          k = 0.1750 0.1750 0.1750 (  1835 PWs)   bands (ev):

    -6.5618   2.4914   5.2558   5.2558   6.8021   9.1291   9.1291  10.1926

          k = 0.1500 0.1500 0.1500 (  1829 PWs)   bands (ev):

    -6.6581   2.9780   5.3676   5.3676   6.8741   8.9849   8.9849   9.7617

          k = 0.1250 0.1250 0.1250 (  1841 PWs)   bands (ev):

    -6.7402   3.4714   5.4775   5.4775   6.9159   8.8373   8.8373   9.3562

          k = 0.1000 0.1000 0.1000 (  1835 PWs)   bands (ev):

    -6.8079   3.9682   5.5810   5.5810   6.9039   8.6959   8.6959   8.9955

          k = 0.0750 0.0750 0.0750 (  1835 PWs)   bands (ev):

    -6.8607   4.4642   5.6725   5.6725   6.8058   8.5704   8.5704   8.7075

          k = 0.0500 0.0500 0.0500 (  1828 PWs)   bands (ev):

    -6.8986   4.9532   5.7453   5.7453   6.5964   8.4711   8.4711   8.5149

          k = 0.0250 0.0250 0.0250 (  1834 PWs)   bands (ev):

    -6.9213   5.4254   5.7926   5.7926   6.2807   8.4069   8.4069   8.4144

          k = 0.0000 0.0000 0.0000 (  1837 PWs)   bands (ev):

    -6.9289   5.8091   5.8091   5.8091   5.9462   8.3847   8.3847   8.3847

          k = 0.0000 0.0500 0.0000 (  1828 PWs)   bands (ev):

    -6.9188   5.3838   5.7575   5.7575   6.3685   8.3500   8.4499   8.4499

          k = 0.0000 0.1000 0.0000 (  1824 PWs)   bands (ev):

    -6.8884   4.8970   5.6168   5.6168   6.8449   8.2520   8.6317   8.6317

          k = 0.0000 0.1500 0.0000 (  1836 PWs)   bands (ev):

    -6.8378   4.4101   5.4167   5.4167   7.3089   8.1055   8.9000   8.9000

          k = 0.0000 0.2000 0.0000 (  1840 PWs)   bands (ev):

    -6.7671   3.9255   5.1841   5.1841   7.7487   7.9275   9.2274   9.2274

          k = 0.0000 0.2500 0.0000 (  1840 PWs)   bands (ev):

    -6.6763   3.4441   4.9376   4.9376   7.7331   8.1470   9.5948   9.5948

          k = 0.0000 0.3000 0.0000 (  1836 PWs)   bands (ev):

    -6.5656   2.9666   4.6890   4.6890   7.5340   8.4777   9.9898   9.9898

          k = 0.0000 0.3500 0.0000 (  1832 PWs)   bands (ev):

    -6.4350   2.4932   4.4455   4.4455   7.3383   8.7061  10.4043  10.4043

          k = 0.0000 0.4000 0.0000 (  1824 PWs)   bands (ev):

    -6.2848   2.0244   4.2119   4.2119   7.1523   8.8007  10.8329  10.8329

          k = 0.0000 0.4500 0.0000 (  1820 PWs)   bands (ev):

    -6.1153   1.5604   3.9911   3.9911   6.9800   8.7562  11.2717  11.2717

          k = 0.0000 0.5000 0.0000 (  1828 PWs)   bands (ev):

    -5.9265   1.1015   3.7855   3.7855   6.8246   8.6016  11.7175  11.7175

          k = 0.0000 0.5500 0.0000 (  1824 PWs)   bands (ev):

    -5.7188   0.6483   3.5965   3.5965   6.6884   8.3794  12.1680  12.1680

          k = 0.0000 0.6000 0.0000 (  1832 PWs)   bands (ev):

    -5.4926   0.2011   3.4253   3.4253   6.5732   8.1252  12.6208  12.6208

          k = 0.0000 0.6500 0.0000 (  1828 PWs)   bands (ev):

    -5.2481  -0.2394   3.2727   3.2727   6.4803   7.8631  13.0734  13.0734

          k = 0.0000 0.7000 0.0000 (  1820 PWs)   bands (ev):

    -4.9859  -0.6724   3.1394   3.1394   6.4109   7.6079  13.5224  13.5224

          k = 0.0000 0.7500 0.0000 (  1808 PWs)   bands (ev):

    -4.7063  -1.0973   3.0259   3.0259   6.3659   7.3683  13.9630  13.9630

          k = 0.0000 0.8000 0.0000 (  1808 PWs)   bands (ev):

    -4.4099  -1.5131   2.9326   2.9326   6.3461   7.1498  14.3866  14.3866

          k = 0.0000 0.8500 0.0000 (  1800 PWs)   bands (ev):

    -4.0972  -1.9190   2.8597   2.8597   6.3522   6.9553  14.7787  14.7787

          k = 0.0000 0.9000 0.0000 (  1796 PWs)   bands (ev):

    -3.7689  -2.3141   2.8075   2.8075   6.3848   6.7868  15.1136  15.1136

          k = 0.0000 0.9500 0.0000 (  1784 PWs)   bands (ev):

    -3.4257  -2.6974   2.7761   2.7761   6.4443   6.6453  15.3496  15.3496

          k = 0.0000 1.0000 0.0000 (  1772 PWs)   bands (ev):

    -3.0683  -3.0683   2.7656   2.7656   6.5311   6.5311  15.4367  15.4367

          k = 0.0000 0.9875 0.0375 (  1784 PWs)   bands (ev):

    -3.1574  -2.9757   2.7502   2.7511   6.5393   6.5890  15.3731  15.3875

          k = 0.0000 0.9750 0.0750 (  1796 PWs)   bands (ev):

    -3.2422  -2.8811   2.7040   2.7111   6.6135   6.7094  15.1593  15.2622

          k = 0.0000 0.9625 0.1125 (  1804 PWs)   bands (ev):

    -3.3216  -2.7859   2.6303   2.6532   6.7496   6.8862  14.7943  15.0831

          k = 0.0000 0.9500 0.1500 (  1808 PWs)   bands (ev):

    -3.3951  -2.6919   2.5350   2.5860   6.9410   7.1117  14.3190  14.8624

          k =-0.0000 0.9375 0.1875 (  1813 PWs)   bands (ev):

    -3.4619  -2.6011   2.4247   2.5182   7.1805   7.3787  13.7797  14.6075

          k = 0.0000 0.9250 0.2250 (  1813 PWs)   bands (ev):

    -3.5217  -2.5157   2.3059   2.4575   7.4611   7.6809  13.2080  14.3248

          k = 0.0000 0.9125 0.2625 (  1819 PWs)   bands (ev):

    -3.5742  -2.4377   2.1841   2.4102   7.7766   8.0127  12.6232  14.0204

          k = 0.0000 0.9000 0.3000 (  1818 PWs)   bands (ev):

    -3.6191  -2.3695   2.0637   2.3816   8.1220   8.3693  12.0373  13.7004

          k = 0.0000 0.8875 0.3375 (  1817 PWs)   bands (ev):

    -3.6562  -2.3129   1.9484   2.3755   8.4933   8.7457  11.4594  13.3703

          k = 0.0000 0.8750 0.3750 (  1813 PWs)   bands (ev):

    -3.6854  -2.2693   1.8408   2.3944   8.8871   9.1341  10.8995  13.0350

          k = 0.0000 0.8625 0.4125 (  1816 PWs)   bands (ev):

    -3.7067  -2.2396   1.7431   2.4392   9.3003   9.5065  10.3873  12.6987

          k = 0.0000 0.8500 0.4500 (  1820 PWs)   bands (ev):

    -3.7199  -2.2239   1.6570   2.5092   9.5976   9.7304  10.1892  12.3648

          k = 0.0000 0.8375 0.4875 (  1824 PWs)   bands (ev):

    -3.7252  -2.2218   1.5836   2.6018   9.1877  10.1740  10.5262  12.0368

          k =-0.0000 0.8250 0.5250 (  1823 PWs)   bands (ev):

    -3.7225  -2.2321   1.5240   2.7127   8.7214  10.6255  10.9550  11.7203

          k = 0.0000 0.8125 0.5625 (  1823 PWs)   bands (ev):

    -3.7119  -2.2536   1.4789   2.8352   8.2769  11.0487  11.3984  11.4507

          k = 0.0000 0.8000 0.6000 (  1821 PWs)   bands (ev):

    -3.6933  -2.2846   1.4489   2.9602   7.8721  11.0312  11.6385  11.8391

          k = 0.0000 0.7875 0.6375 (  1815 PWs)   bands (ev):

    -3.6668  -2.3237   1.4344   3.0752   7.5210  10.7560  12.0972  12.2612

          k = 0.0000 0.7750 0.6750 (  1816 PWs)   bands (ev):

    -3.6324  -2.3695   1.4356   3.1647   7.2396  10.4745  12.5656  12.6423

          k = 0.0000 0.7625 0.7125 (  1820 PWs)   bands (ev):

    -3.5901  -2.4211   1.4527   3.2115   7.0450  10.2012  12.9491  12.9996

          k = 0.0000 0.7500 0.7500 (  1822 PWs)   bands (ev):

    -3.5399  -2.4777   1.4857   3.2009   6.9517   9.9387  13.1452  13.2852

          k = 0.0000 0.7125 0.7125 (  1818 PWs)   bands (ev):

    -3.7175  -2.2874   1.3943   3.3353   7.0767  10.7203  12.7585  12.8507

          k = 0.0000 0.6750 0.6750 (  1806 PWs)   bands (ev):

    -3.9224  -2.0706   1.3657   3.4848   7.2114  11.5004  12.3965  12.4251

          k = 0.0000 0.6375 0.6375 (  1812 PWs)   bands (ev):

    -4.1491  -1.8274   1.3978   3.6476   7.3515  12.0127  12.0651  12.0888

          k = 0.0000 0.6000 0.6000 (  1820 PWs)   bands (ev):

    -4.3910  -1.5579   1.4860   3.8217   7.4913  11.6166  11.7703  11.9644

          k = 0.0000 0.5625 0.5625 (  1820 PWs)   bands (ev):

    -4.6413  -1.2621   1.6247   4.0047   7.6232  11.2390  11.5187  11.6001

          k = 0.0000 0.5250 0.5250 (  1830 PWs)   bands (ev):

    -4.8937  -0.9403   1.8084   4.1938   7.7381  10.8814  11.2240  11.3171

          k = 0.0000 0.4875 0.4875 (  1827 PWs)   bands (ev):

    -5.1430  -0.5925   2.0318   4.3859   7.8263  10.5452  10.8634  11.1714

          k = 0.0000 0.4500 0.4500 (  1835 PWs)   bands (ev):

    -5.3848  -0.2190   2.2901   4.5773   7.8795  10.2314  10.5245  11.0833

          k = 0.0000 0.4125 0.4125 (  1849 PWs)   bands (ev):

    -5.6155   0.1799   2.5788   4.7643   7.8932   9.9406  10.2092  11.0458

          k = 0.0000 0.3750 0.3750 (  1835 PWs)   bands (ev):

    -5.8323   0.6039   2.8937   4.9431   7.8687   9.6736   9.9186  11.0388

          k = 0.0000 0.3375 0.3375 (  1841 PWs)   bands (ev):

    -6.0331   1.0524   3.2304   5.1099   7.8123   9.4309   9.6527  11.0256

          k = 0.0000 0.3000 0.3000 (  1833 PWs)   bands (ev):

    -6.2160   1.5247   3.5840   5.2616   7.7320   9.2127   9.4116  10.9535

          k = 0.0000 0.2625 0.2625 (  1839 PWs)   bands (ev):

    -6.3799   2.0198   3.9487   5.3957   7.6346   9.0196   9.1949  10.7674

          k = 0.0000 0.2250 0.2250 (  1839 PWs)   bands (ev):

    -6.5236   2.5366   4.3172   5.5106   7.5239   8.8518   9.0021  10.4431

          k = 0.0000 0.1875 0.1875 (  1839 PWs)   bands (ev):

    -6.6463   3.0732   4.6802   5.6057   7.3980   8.7094   8.8328  10.0087

          k = 0.0000 0.1500 0.1500 (  1841 PWs)   bands (ev):

    -6.7475   3.6267   5.0248   5.6814   7.2464   8.5926   8.6867   9.5252

          k = 0.0000 0.1125 0.1125 (  1835 PWs)   bands (ev):

    -6.8266   4.1929   5.3336   5.7385   7.0457   8.5017   8.5645   9.0625

          k = 0.0000 0.0750 0.0750 (  1833 PWs)   bands (ev):

    -6.8834   4.7649   5.5841   5.7781   6.7607   8.4367   8.4691   8.6905

          k = 0.0000 0.0375 0.0375 (  1829 PWs)   bands (ev):

    -6.9175   5.3303   5.7504   5.8014   6.3691   8.3977   8.4067   8.4603

          k = 0.0000 0.0000 0.0000 (  1837 PWs)   bands (ev):

    -6.9289   5.8091   5.8091   5.8091   5.9462   8.3847   8.3847   8.3847

 ------ SPIN DOWN ----------


          k = 0.5000 0.5000 0.5000 (  1850 PWs)   bands (ev):

    -4.8643  -1.7710   4.4277   4.4277   6.0208   9.5419   9.5419  13.1153

          k = 0.4750 0.4750 0.4750 (  1826 PWs)   bands (ev):

    -4.8920  -1.7277   4.4330   4.4330   6.0262   9.5446   9.5446  13.1229

          k = 0.4500 0.4500 0.4500 (  1823 PWs)   bands (ev):

    -4.9706  -1.6021   4.4488   4.4488   6.0424   9.5523   9.5523  13.1449

          k = 0.4250 0.4250 0.4250 (  1838 PWs)   bands (ev):

    -5.0889  -1.4056   4.4752   4.4752   6.0694   9.5638   9.5638  13.1782

          k = 0.4000 0.4000 0.4000 (  1832 PWs)   bands (ev):

    -5.2338  -1.1514   4.5120   4.5120   6.1070   9.5768   9.5768  13.2149

          k = 0.3750 0.3750 0.3750 (  1838 PWs)   bands (ev):

    -5.3942  -0.8509   4.5590   4.5590   6.1549   9.5883   9.5883  13.2310

          k = 0.3500 0.3500 0.3500 (  1847 PWs)   bands (ev):

    -5.5610  -0.5133   4.6162   4.6162   6.2128   9.5942   9.5942  13.1498

          k = 0.3250 0.3250 0.3250 (  1853 PWs)   bands (ev):

    -5.7282  -0.1453   4.6832   4.6832   6.2801   9.5898   9.5898  12.8687

          k = 0.3000 0.3000 0.3000 (  1841 PWs)   bands (ev):

    -5.8913   0.2484   4.7596   4.7596   6.3561   9.5698   9.5698  12.4583

          k = 0.2750 0.2750 0.2750 (  1835 PWs)   bands (ev):

    -6.0471   0.6639   4.8449   4.8449   6.4397   9.5293   9.5293  12.0088

          k = 0.2500 0.2500 0.2500 (  1847 PWs)   bands (ev):

    -6.1934   1.0984   4.9384   4.9384   6.5292   9.4647   9.4647  11.5500

          k = 0.2250 0.2250 0.2250 (  1832 PWs)   bands (ev):

    -6.3287   1.5493   5.0390   5.0390   6.6222   9.3748   9.3748  11.0916

          k = 0.2000 0.2000 0.2000 (  1841 PWs)   bands (ev):

    -6.4518   2.0144   5.1454   5.1454   6.7151   9.2614   9.2614  10.6378

          k = 0.1750 0.1750 0.1750 (  1835 PWs)   bands (ev):

    -6.5618   2.4915   5.2558   5.2558   6.8021   9.1291   9.1291  10.1926

          k = 0.1500 0.1500 0.1500 (  1829 PWs)   bands (ev):

    -6.6581   2.9780   5.3676   5.3676   6.8741   8.9849   8.9849   9.7617

          k = 0.1250 0.1250 0.1250 (  1841 PWs)   bands (ev):

    -6.7402   3.4714   5.4776   5.4776   6.9159   8.8373   8.8373   9.3562

          k = 0.1000 0.1000 0.1000 (  1835 PWs)   bands (ev):

    -6.8078   3.9682   5.5811   5.5811   6.9039   8.6959   8.6959   8.9955

          k = 0.0750 0.0750 0.0750 (  1835 PWs)   bands (ev):

    -6.8607   4.4642   5.6726   5.6726   6.8058   8.5704   8.5704   8.7075

          k = 0.0500 0.0500 0.0500 (  1828 PWs)   bands (ev):

    -6.8985   4.9532   5.7454   5.7454   6.5964   8.4711   8.4711   8.5149

          k = 0.0250 0.0250 0.0250 (  1834 PWs)   bands (ev):

    -6.9213   5.4254   5.7926   5.7926   6.2807   8.4069   8.4069   8.4144

          k = 0.0000 0.0000 0.0000 (  1837 PWs)   bands (ev):

    -6.9289   5.8091   5.8091   5.8091   5.9462   8.3846   8.3846   8.3846

          k = 0.0000 0.0500 0.0000 (  1828 PWs)   bands (ev):

    -6.9188   5.3839   5.7575   5.7575   6.3685   8.3500   8.4499   8.4499

          k = 0.0000 0.1000 0.0000 (  1824 PWs)   bands (ev):

    -6.8884   4.8970   5.6169   5.6169   6.8449   8.2520   8.6317   8.6317

          k = 0.0000 0.1500 0.0000 (  1836 PWs)   bands (ev):

    -6.8378   4.4101   5.4167   5.4167   7.3089   8.1055   8.9000   8.9000

          k = 0.0000 0.2000 0.0000 (  1840 PWs)   bands (ev):

    -6.7671   3.9255   5.1841   5.1841   7.7487   7.9275   9.2274   9.2274

          k = 0.0000 0.2500 0.0000 (  1840 PWs)   bands (ev):

    -6.6763   3.4441   4.9376   4.9376   7.7331   8.1470   9.5948   9.5948

          k = 0.0000 0.3000 0.0000 (  1836 PWs)   bands (ev):

    -6.5655   2.9666   4.6890   4.6890   7.5339   8.4777   9.9898   9.9898

          k = 0.0000 0.3500 0.0000 (  1832 PWs)   bands (ev):

    -6.4350   2.4932   4.4455   4.4455   7.3383   8.7061  10.4043  10.4043

          k = 0.0000 0.4000 0.0000 (  1824 PWs)   bands (ev):

    -6.2848   2.0244   4.2119   4.2119   7.1522   8.8007  10.8329  10.8329

          k = 0.0000 0.4500 0.0000 (  1820 PWs)   bands (ev):

    -6.1152   1.5604   3.9912   3.9912   6.9800   8.7562  11.2717  11.2717

          k = 0.0000 0.5000 0.0000 (  1828 PWs)   bands (ev):

    -5.9265   1.1015   3.7855   3.7855   6.8246   8.6016  11.7175  11.7175

          k = 0.0000 0.5500 0.0000 (  1824 PWs)   bands (ev):

    -5.7188   0.6483   3.5966   3.5966   6.6884   8.3794  12.1680  12.1680

          k = 0.0000 0.6000 0.0000 (  1832 PWs)   bands (ev):

    -5.4926   0.2011   3.4253   3.4253   6.5732   8.1252  12.6208  12.6208

          k = 0.0000 0.6500 0.0000 (  1828 PWs)   bands (ev):

    -5.2481  -0.2394   3.2728   3.2728   6.4803   7.8631  13.0734  13.0734

          k = 0.0000 0.7000 0.0000 (  1820 PWs)   bands (ev):

    -4.9859  -0.6724   3.1395   3.1395   6.4109   7.6079  13.5224  13.5224

          k = 0.0000 0.7500 0.0000 (  1808 PWs)   bands (ev):

    -4.7063  -1.0972   3.0259   3.0259   6.3659   7.3683  13.9630  13.9630

          k = 0.0000 0.8000 0.0000 (  1808 PWs)   bands (ev):

    -4.4098  -1.5130   2.9326   2.9326   6.3461   7.1497  14.3866  14.3866

          k = 0.0000 0.8500 0.0000 (  1800 PWs)   bands (ev):

    -4.0972  -1.9189   2.8597   2.8597   6.3522   6.9553  14.7787  14.7787

          k = 0.0000 0.9000 0.0000 (  1796 PWs)   bands (ev):

    -3.7689  -2.3140   2.8075   2.8075   6.3848   6.7868  15.1136  15.1136

          k = 0.0000 0.9500 0.0000 (  1784 PWs)   bands (ev):

    -3.4257  -2.6974   2.7761   2.7761   6.4443   6.6452  15.3496  15.3496

          k = 0.0000 1.0000 0.0000 (  1772 PWs)   bands (ev):

    -3.0682  -3.0682   2.7657   2.7657   6.5310   6.5310  15.4367  15.4367

          k = 0.0000 0.9875 0.0375 (  1784 PWs)   bands (ev):

    -3.1574  -2.9757   2.7502   2.7511   6.5393   6.5889  15.3731  15.3875

          k = 0.0000 0.9750 0.0750 (  1796 PWs)   bands (ev):

    -3.2422  -2.8811   2.7040   2.7111   6.6135   6.7094  15.1593  15.2622

          k = 0.0000 0.9625 0.1125 (  1804 PWs)   bands (ev):

    -3.3216  -2.7859   2.6303   2.6532   6.7495   6.8861  14.7943  15.0831

          k = 0.0000 0.9500 0.1500 (  1808 PWs)   bands (ev):

    -3.3951  -2.6919   2.5350   2.5860   6.9410   7.1116  14.3190  14.8624

          k =-0.0000 0.9375 0.1875 (  1813 PWs)   bands (ev):

    -3.4619  -2.6011   2.4247   2.5182   7.1805   7.3787  13.7797  14.6075

          k = 0.0000 0.9250 0.2250 (  1813 PWs)   bands (ev):

    -3.5217  -2.5157   2.3059   2.4575   7.4610   7.6809  13.2079  14.3248

          k = 0.0000 0.9125 0.2625 (  1819 PWs)   bands (ev):

    -3.5742  -2.4377   2.1841   2.4102   7.7765   8.0127  12.6232  14.0204

          k = 0.0000 0.9000 0.3000 (  1818 PWs)   bands (ev):

    -3.6191  -2.3695   2.0637   2.3816   8.1220   8.3693  12.0373  13.7004

          k = 0.0000 0.8875 0.3375 (  1817 PWs)   bands (ev):

    -3.6562  -2.3129   1.9484   2.3755   8.4933   8.7457  11.4594  13.3703

          k = 0.0000 0.8750 0.3750 (  1813 PWs)   bands (ev):

    -3.6854  -2.2693   1.8408   2.3944   8.8870   9.1341  10.8995  13.0350

          k = 0.0000 0.8625 0.4125 (  1816 PWs)   bands (ev):

    -3.7067  -2.2395   1.7431   2.4392   9.3003   9.5065  10.3873  12.6987

          k = 0.0000 0.8500 0.4500 (  1820 PWs)   bands (ev):

    -3.7199  -2.2239   1.6570   2.5092   9.5976   9.7303  10.1892  12.3647

          k = 0.0000 0.8375 0.4875 (  1824 PWs)   bands (ev):

    -3.7252  -2.2217   1.5836   2.6018   9.1877  10.1740  10.5262  12.0367

          k =-0.0000 0.8250 0.5250 (  1823 PWs)   bands (ev):

    -3.7225  -2.2321   1.5240   2.7127   8.7214  10.6255  10.9550  11.7203

          k = 0.0000 0.8125 0.5625 (  1823 PWs)   bands (ev):

    -3.7119  -2.2536   1.4789   2.8352   8.2769  11.0487  11.3984  11.4507

          k = 0.0000 0.8000 0.6000 (  1821 PWs)   bands (ev):

    -3.6933  -2.2846   1.4489   2.9602   7.8720  11.0312  11.6385  11.8390

          k = 0.0000 0.7875 0.6375 (  1815 PWs)   bands (ev):

    -3.6668  -2.3237   1.4344   3.0752   7.5210  10.7560  12.0971  12.2612

          k = 0.0000 0.7750 0.6750 (  1816 PWs)   bands (ev):

    -3.6324  -2.3695   1.4356   3.1647   7.2395  10.4745  12.5656  12.6422

          k = 0.0000 0.7625 0.7125 (  1820 PWs)   bands (ev):

    -3.5901  -2.4211   1.4527   3.2115   7.0449  10.2012  12.9491  12.9996

          k = 0.0000 0.7500 0.7500 (  1822 PWs)   bands (ev):

    -3.5399  -2.4777   1.4857   3.2009   6.9517   9.9387  13.1452  13.2852

          k = 0.0000 0.7125 0.7125 (  1818 PWs)   bands (ev):

    -3.7175  -2.2874   1.3943   3.3354   7.0767  10.7203  12.7584  12.8507

          k = 0.0000 0.6750 0.6750 (  1806 PWs)   bands (ev):

    -3.9224  -2.0706   1.3657   3.4849   7.2114  11.5004  12.3965  12.4251

          k = 0.0000 0.6375 0.6375 (  1812 PWs)   bands (ev):

    -4.1491  -1.8274   1.3978   3.6477   7.3515  12.0127  12.0651  12.0888

          k = 0.0000 0.6000 0.6000 (  1820 PWs)   bands (ev):

    -4.3910  -1.5579   1.4860   3.8218   7.4913  11.6166  11.7703  11.9644

          k = 0.0000 0.5625 0.5625 (  1820 PWs)   bands (ev):

    -4.6413  -1.2621   1.6247   4.0048   7.6231  11.2390  11.5186  11.6001

          k = 0.0000 0.5250 0.5250 (  1830 PWs)   bands (ev):

    -4.8937  -0.9403   1.8084   4.1939   7.7381  10.8814  11.2240  11.3171

          k = 0.0000 0.4875 0.4875 (  1827 PWs)   bands (ev):

    -5.1430  -0.5925   2.0318   4.3859   7.8263  10.5452  10.8634  11.1714

          k = 0.0000 0.4500 0.4500 (  1835 PWs)   bands (ev):

    -5.3848  -0.2190   2.2901   4.5773   7.8795  10.2314  10.5245  11.0833

          k = 0.0000 0.4125 0.4125 (  1849 PWs)   bands (ev):

    -5.6155   0.1800   2.5788   4.7643   7.8932   9.9406  10.2092  11.0458

          k = 0.0000 0.3750 0.3750 (  1835 PWs)   bands (ev):

    -5.8323   0.6039   2.8938   4.9431   7.8687   9.6736   9.9186  11.0388

          k = 0.0000 0.3375 0.3375 (  1841 PWs)   bands (ev):

    -6.0330   1.0524   3.2304   5.1099   7.8123   9.4308   9.6527  11.0256

          k = 0.0000 0.3000 0.3000 (  1833 PWs)   bands (ev):

    -6.2160   1.5247   3.5840   5.2617   7.7320   9.2127   9.4116  10.9535

          k = 0.0000 0.2625 0.2625 (  1839 PWs)   bands (ev):

    -6.3799   2.0199   3.9487   5.3957   7.6346   9.0196   9.1949  10.7674

          k = 0.0000 0.2250 0.2250 (  1839 PWs)   bands (ev):

    -6.5236   2.5367   4.3173   5.5106   7.5239   8.8517   9.0021  10.4431

          k = 0.0000 0.1875 0.1875 (  1839 PWs)   bands (ev):

    -6.6463   3.0732   4.6802   5.6058   7.3980   8.7094   8.8328  10.0087

          k = 0.0000 0.1500 0.1500 (  1841 PWs)   bands (ev):

    -6.7475   3.6267   5.0248   5.6814   7.2464   8.5926   8.6867   9.5252

          k = 0.0000 0.1125 0.1125 (  1835 PWs)   bands (ev):

    -6.8266   4.1929   5.3336   5.7385   7.0457   8.5017   8.5645   9.0625

          k = 0.0000 0.0750 0.0750 (  1833 PWs)   bands (ev):

    -6.8834   4.7649   5.5842   5.7782   6.7607   8.4367   8.4691   8.6904

          k = 0.0000 0.0375 0.0375 (  1829 PWs)   bands (ev):

    -6.9175   5.3303   5.7504   5.8014   6.3691   8.3977   8.4067   8.4603

          k = 0.0000 0.0000 0.0000 (  1837 PWs)   bands (ev):

    -6.9289   5.8091   5.8091   5.8091   5.9462   8.3846   8.3846   8.3846

     Writing all to output data dir ./outputs/ge.save/

     init_run     :      0.60s CPU      0.66s WALL (       1 calls)
     electrons    :     10.86s CPU     19.34s WALL (       1 calls)

     Called by init_run:
     wfcinit      :      0.00s CPU      0.00s WALL (       1 calls)
     wfcinit:atom :      0.03s CPU      0.28s WALL (     162 calls)
     wfcinit:wfcr :      0.88s CPU      1.84s WALL (     162 calls)
     potinit      :      0.10s CPU      0.14s WALL (       1 calls)
     hinit0       :      0.44s CPU      0.47s WALL (       1 calls)

     Called by electrons:
     c_bands      :     10.86s CPU     19.30s WALL (       1 calls)
     v_of_rho     :      0.02s CPU      0.03s WALL (       1 calls)
     v_h          :      0.00s CPU      0.00s WALL (       1 calls)
     v_xc         :      0.02s CPU      0.03s WALL (       1 calls)
     newd         :      0.01s CPU      0.01s WALL (       1 calls)
     PAW_pot      :      0.08s CPU      0.11s WALL (       1 calls)

     Called by c_bands:
     init_us_2    :      0.04s CPU      0.43s WALL (     162 calls)
     init_us_2:cp :      0.04s CPU      0.43s WALL (     162 calls)
     cegterg      :      9.76s CPU     14.36s WALL (     166 calls)

     Called by sum_band:

     Called by *egterg:
     cdiaghg      :      0.36s CPU      0.54s WALL (    2318 calls)
     cegterg:over :      0.52s CPU      0.90s WALL (    2156 calls)
     cegterg:upda :      0.40s CPU      0.54s WALL (    2156 calls)
     cegterg:last :      0.32s CPU      0.42s WALL (     587 calls)
     h_psi        :      8.45s CPU     12.88s WALL (    2484 calls)
     s_psi        :      0.20s CPU      0.27s WALL (    2484 calls)
     g_psi        :      0.15s CPU      0.22s WALL (    2156 calls)

     Called by h_psi:
     h_psi:calbec :      0.28s CPU      0.38s WALL (    2484 calls)
     vloc_psi     :      7.91s CPU     12.20s WALL (    2484 calls)
     add_vuspsi   :      0.22s CPU      0.25s WALL (    2484 calls)

     General routines
     calbec       :      0.28s CPU      0.37s WALL (    2484 calls)
     fft          :      0.35s CPU      0.38s WALL (      21 calls)
     fftw         :      7.06s CPU     11.08s WALL (   29344 calls)
     davcio       :      0.04s CPU      0.04s WALL (     324 calls)

     Parallel routines

     PAW routines
     PAW_pot      :      0.08s CPU      0.11s WALL (       1 calls)

     PWSCF        :     11.78s CPU     20.60s WALL


   This run was terminated on:   7:16:17  19Dec2024            

=------------------------------------------------------------------------------=
   JOB DONE.
=------------------------------------------------------------------------------=
