
     Program PWSCF v.7.0 starts on 19Dec2024 at  7:21:29 

     This program is part of the open-source Quantum ESPRESSO suite
     for quantum simulation of materials; please cite
         "P. Giannozzi et al., J. Phys.:Condens. Matter 21 395502 (2009);
         "P. Giannozzi et al., J. Phys.:Condens. Matter 29 465901 (2017);
         "P. Giannozzi et al., J. Chem. Phys. 152 154105 (2020);
          URL http://www.quantum-espresso.org", 
     in publications or presentations arising from this work. More details at
     http://www.quantum-espresso.org/quote

     Parallel version (MPI & OpenMP), running on       2 processor cores
     Number of MPI processes:                 2
     Threads/MPI process:                     1

     MPI processes distributed on     1 nodes
     R & G space division:  proc/nbgrp/npool/nimage =       2
     318 MiB available memory on the printing compute node when the environment starts

     Reading input from pw.bands.w_soc.in
Warning: card / ignored

     Current dimensions of program PWSCF are:
     Max number of different atomic species (ntypx) = 10
     Max number of k-points (npk) =  40000
     Max angular momentum in pseudopotentials (lmaxx) =  4
     Message from routine volume:
     axis vectors are left-handed

     Atomic positions and unit cell read from directory:
     ./outputs/ge.save/

     Message from routine volume:
     axis vectors are left-handed
     file Ge.rel-pbe-dn-kjpaw_psl.1.0.0.UPF: wavefunction(s)  4S 4P 4P 3D 3D renormalized

     IMPORTANT: XC functional enforced from input :
     Exchange-correlation= PBE
                           (   1   4   3   4   0   0   0)
     Any further DFT definition will be discarded
     Please, verify this is what you really want

     Message from routine setup:
     using ibrav=0 with symmetry is DISCOURAGED, use correct ibrav instead

     Subspace diagonalization in iterative solution of the eigenvalue problem:
     a serial algorithm will be used


     Parallelization info
     --------------------
     sticks:   dense  smooth     PW     G-vecs:    dense   smooth      PW
     Min         395     395    120                 7276     7276    1198
     Max         398     398    121                 7277     7277    1199
     Sum         793     793    241                14553    14553    2397

     Using Slab Decomposition



     bravais-lattice index     =            0
     lattice parameter (alat)  =      10.6908  a.u.
     unit-cell volume          =     305.4751 (a.u.)^3
     number of atoms/cell      =            2
     number of atomic types    =            1
     number of electrons       =        28.00
     number of Kohn-Sham states=           36
     kinetic-energy cutoff     =      50.0000  Ry
     charge density cutoff     =     200.0000  Ry
     Exchange-correlation= PBE
                           (   1   4   3   4   0   0   0)
     Non magnetic calculation with spin-orbit


     celldm(1)=  10.690842  celldm(2)=   0.000000  celldm(3)=   0.000000
     celldm(4)=   0.000000  celldm(5)=   0.000000  celldm(6)=   0.000000

     crystal axes: (cart. coord. in units of alat)
               a(1) = (   0.500000   0.500000   0.000000 )  
               a(2) = (   0.500000   0.000000   0.500000 )  
               a(3) = (   0.000000   0.500000   0.500000 )  

     reciprocal axes: (cart. coord. in units 2 pi/alat)
               b(1) = (  1.000000  1.000000 -1.000000 )  
               b(2) = (  1.000000 -1.000000  1.000000 )  
               b(3) = ( -1.000000  1.000000  1.000000 )  


     PseudoPot. # 1 for Ge read from file:
     ../Pseudopotentials/Ge.rel-pbe-dn-kjpaw_psl.1.0.0.UPF
     MD5 check sum: 3df70156cba06735f580abe2b62603e3
     Pseudo is Projector augmented-wave + core cor, Zval = 14.0
     Generated using &quot;atomic&quot; code by A. Dal Corso  v.6.3
     Shape of augmentation charge: PSQ
     Using radial grid of 1207 points, 10 beta functions with: 
                l(1) =   0
                l(2) =   0
                l(3) =   1
                l(4) =   1
                l(5) =   1
                l(6) =   1
                l(7) =   2
                l(8) =   2
                l(9) =   2
               l(10) =   2
     Q(r) pseudized with 0 coefficients 


     atomic species   valence    mass     pseudopotential
        Ge            14.00    72.63000     Ge( 1.00)

     48 Sym. Ops., with inversion, found (24 have fractional translation)


                                    s                        frac. trans.

      isym =  1     identity                                     

 cryst.   s( 1) = (     1          0          0      )
                  (     0          1          0      )
                  (     0          0          1      )

 cart.    s( 1) = (  1.0000000  0.0000000  0.0000000 )
                  (  0.0000000  1.0000000  0.0000000 )
                  (  0.0000000  0.0000000  1.0000000 )


      isym =  2     180 deg rotation - cart. axis [0,0,1]        

 cryst.   s( 2) = (    -1          0          0      )
                  (    -1          0          1      )
                  (    -1          1          0      )

 cart.    s( 2) = ( -1.0000000  0.0000000  0.0000000 )
                  (  0.0000000 -1.0000000  0.0000000 )
                  (  0.0000000  0.0000000  1.0000000 )


      isym =  3     180 deg rotation - cart. axis [0,1,0]        

 cryst.   s( 3) = (     0         -1          1      )
                  (     0         -1          0      )
                  (     1         -1          0      )

 cart.    s( 3) = ( -1.0000000  0.0000000  0.0000000 )
                  (  0.0000000  1.0000000  0.0000000 )
                  (  0.0000000  0.0000000 -1.0000000 )


      isym =  4     180 deg rotation - cart. axis [1,0,0]        

 cryst.   s( 4) = (     0          1         -1      )
                  (     1          0         -1      )
                  (     0          0         -1      )

 cart.    s( 4) = (  1.0000000  0.0000000  0.0000000 )
                  (  0.0000000 -1.0000000  0.0000000 )
                  (  0.0000000  0.0000000 -1.0000000 )


      isym =  5     180 deg rotation - cart. axis [1,1,0]        

 cryst.   s( 5) = (     1          0          0      )    f =( -0.2500000 )
                  (     1         -1          0      )       ( -0.2500000 )
                  (     1          0         -1      )       ( -0.2500000 )

 cart.    s( 5) = (  0.0000000  1.0000000  0.0000000 )    f =( -0.2500000 )
                  (  1.0000000  0.0000000  0.0000000 )       ( -0.2500000 )
                  (  0.0000000  0.0000000 -1.0000000 )       ( -0.2500000 )


      isym =  6     180 deg rotation - cart. axis [1,-1,0]       

 cryst.   s( 6) = (    -1          0          0      )    f =( -0.2500000 )
                  (     0          0         -1      )       ( -0.2500000 )
                  (     0         -1          0      )       ( -0.2500000 )

 cart.    s( 6) = (  0.0000000 -1.0000000  0.0000000 )    f =( -0.2500000 )
                  ( -1.0000000  0.0000000  0.0000000 )       ( -0.2500000 )
                  (  0.0000000  0.0000000 -1.0000000 )       ( -0.2500000 )


      isym =  7      90 deg rotation - cart. axis [0,0,-1]       

 cryst.   s( 7) = (     0          1         -1      )    f =( -0.2500000 )
                  (    -1          1          0      )       ( -0.2500000 )
                  (     0          1          0      )       ( -0.2500000 )

 cart.    s( 7) = (  0.0000000  1.0000000  0.0000000 )    f =( -0.2500000 )
                  ( -1.0000000  0.0000000  0.0000000 )       ( -0.2500000 )
                  (  0.0000000  0.0000000  1.0000000 )       ( -0.2500000 )


      isym =  8      90 deg rotation - cart. axis [0,0,1]        

 cryst.   s( 8) = (     0         -1          1      )    f =( -0.2500000 )
                  (     0          0          1      )       ( -0.2500000 )
                  (    -1          0          1      )       ( -0.2500000 )

 cart.    s( 8) = (  0.0000000 -1.0000000  0.0000000 )    f =( -0.2500000 )
                  (  1.0000000  0.0000000  0.0000000 )       ( -0.2500000 )
                  (  0.0000000  0.0000000  1.0000000 )       ( -0.2500000 )


      isym =  9     180 deg rotation - cart. axis [1,0,1]        

 cryst.   s( 9) = (    -1          1          0      )    f =( -0.2500000 )
                  (     0          1          0      )       ( -0.2500000 )
                  (     0          1         -1      )       ( -0.2500000 )

 cart.    s( 9) = (  0.0000000  0.0000000  1.0000000 )    f =( -0.2500000 )
                  (  0.0000000 -1.0000000  0.0000000 )       ( -0.2500000 )
                  (  1.0000000  0.0000000  0.0000000 )       ( -0.2500000 )


      isym = 10     180 deg rotation - cart. axis [-1,0,1]       

 cryst.   s(10) = (     0          0         -1      )    f =( -0.2500000 )
                  (     0         -1          0      )       ( -0.2500000 )
                  (    -1          0          0      )       ( -0.2500000 )

 cart.    s(10) = (  0.0000000  0.0000000 -1.0000000 )    f =( -0.2500000 )
                  (  0.0000000 -1.0000000  0.0000000 )       ( -0.2500000 )
                  ( -1.0000000  0.0000000  0.0000000 )       ( -0.2500000 )


      isym = 11      90 deg rotation - cart. axis [0,1,0]        

 cryst.   s(11) = (     1         -1          0      )    f =( -0.2500000 )
                  (     1          0         -1      )       ( -0.2500000 )
                  (     1          0          0      )       ( -0.2500000 )

 cart.    s(11) = (  0.0000000  0.0000000  1.0000000 )    f =( -0.2500000 )
                  (  0.0000000  1.0000000  0.0000000 )       ( -0.2500000 )
                  ( -1.0000000  0.0000000  0.0000000 )       ( -0.2500000 )


      isym = 12      90 deg rotation - cart. axis [0,-1,0]       

 cryst.   s(12) = (     0          0          1      )    f =( -0.2500000 )
                  (    -1          0          1      )       ( -0.2500000 )
                  (     0         -1          1      )       ( -0.2500000 )

 cart.    s(12) = (  0.0000000  0.0000000 -1.0000000 )    f =( -0.2500000 )
                  (  0.0000000  1.0000000  0.0000000 )       ( -0.2500000 )
                  (  1.0000000  0.0000000  0.0000000 )       ( -0.2500000 )


      isym = 13     180 deg rotation - cart. axis [0,1,1]        

 cryst.   s(13) = (    -1          0          1      )    f =( -0.2500000 )
                  (     0         -1          1      )       ( -0.2500000 )
                  (     0          0          1      )       ( -0.2500000 )

 cart.    s(13) = ( -1.0000000  0.0000000  0.0000000 )    f =( -0.2500000 )
                  (  0.0000000  0.0000000  1.0000000 )       ( -0.2500000 )
                  (  0.0000000  1.0000000  0.0000000 )       ( -0.2500000 )


      isym = 14     180 deg rotation - cart. axis [0,1,-1]       

 cryst.   s(14) = (     0         -1          0      )    f =( -0.2500000 )
                  (    -1          0          0      )       ( -0.2500000 )
                  (     0          0         -1      )       ( -0.2500000 )

 cart.    s(14) = ( -1.0000000  0.0000000  0.0000000 )    f =( -0.2500000 )
                  (  0.0000000  0.0000000 -1.0000000 )       ( -0.2500000 )
                  (  0.0000000 -1.0000000  0.0000000 )       ( -0.2500000 )


      isym = 15      90 deg rotation - cart. axis [-1,0,0]       

 cryst.   s(15) = (     1          0         -1      )    f =( -0.2500000 )
                  (     1          0          0      )       ( -0.2500000 )
                  (     1         -1          0      )       ( -0.2500000 )

 cart.    s(15) = (  1.0000000  0.0000000  0.0000000 )    f =( -0.2500000 )
                  (  0.0000000  0.0000000  1.0000000 )       ( -0.2500000 )
                  (  0.0000000 -1.0000000  0.0000000 )       ( -0.2500000 )


      isym = 16      90 deg rotation - cart. axis [1,0,0]        

 cryst.   s(16) = (     0          1          0      )    f =( -0.2500000 )
                  (     0          1         -1      )       ( -0.2500000 )
                  (    -1          1          0      )       ( -0.2500000 )

 cart.    s(16) = (  1.0000000  0.0000000  0.0000000 )    f =( -0.2500000 )
                  (  0.0000000  0.0000000 -1.0000000 )       ( -0.2500000 )
                  (  0.0000000  1.0000000  0.0000000 )       ( -0.2500000 )


      isym = 17     120 deg rotation - cart. axis [-1,-1,-1]     

 cryst.   s(17) = (     0          1          0      )
                  (     0          0          1      )
                  (     1          0          0      )

 cart.    s(17) = (  0.0000000  1.0000000  0.0000000 )
                  (  0.0000000  0.0000000  1.0000000 )
                  (  1.0000000  0.0000000  0.0000000 )


      isym = 18     120 deg rotation - cart. axis [-1,1,1]       

 cryst.   s(18) = (     0         -1          0      )
                  (     1         -1          0      )
                  (     0         -1          1      )

 cart.    s(18) = (  0.0000000 -1.0000000  0.0000000 )
                  (  0.0000000  0.0000000  1.0000000 )
                  ( -1.0000000  0.0000000  0.0000000 )


      isym = 19     120 deg rotation - cart. axis [1,1,-1]       

 cryst.   s(19) = (     1          0         -1      )
                  (     0          0         -1      )
                  (     0          1         -1      )

 cart.    s(19) = (  0.0000000  1.0000000  0.0000000 )
                  (  0.0000000  0.0000000 -1.0000000 )
                  ( -1.0000000  0.0000000  0.0000000 )


      isym = 20     120 deg rotation - cart. axis [1,-1,1]       

 cryst.   s(20) = (    -1          0          1      )
                  (    -1          1          0      )
                  (    -1          0          0      )

 cart.    s(20) = (  0.0000000 -1.0000000  0.0000000 )
                  (  0.0000000  0.0000000 -1.0000000 )
                  (  1.0000000  0.0000000  0.0000000 )


      isym = 21     120 deg rotation - cart. axis [1,1,1]        

 cryst.   s(21) = (     0          0          1      )
                  (     1          0          0      )
                  (     0          1          0      )

 cart.    s(21) = (  0.0000000  0.0000000  1.0000000 )
                  (  1.0000000  0.0000000  0.0000000 )
                  (  0.0000000  1.0000000  0.0000000 )


      isym = 22     120 deg rotation - cart. axis [-1,1,-1]      

 cryst.   s(22) = (     0          0         -1      )
                  (     0          1         -1      )
                  (     1          0         -1      )

 cart.    s(22) = (  0.0000000  0.0000000  1.0000000 )
                  ( -1.0000000  0.0000000  0.0000000 )
                  (  0.0000000 -1.0000000  0.0000000 )


      isym = 23     120 deg rotation - cart. axis [1,-1,-1]      

 cryst.   s(23) = (    -1          1          0      )
                  (    -1          0          0      )
                  (    -1          0          1      )

 cart.    s(23) = (  0.0000000  0.0000000 -1.0000000 )
                  ( -1.0000000  0.0000000  0.0000000 )
                  (  0.0000000  1.0000000  0.0000000 )


      isym = 24     120 deg rotation - cart. axis [-1,-1,1]      

 cryst.   s(24) = (     1         -1          0      )
                  (     0         -1          1      )
                  (     0         -1          0      )

 cart.    s(24) = (  0.0000000  0.0000000 -1.0000000 )
                  (  1.0000000  0.0000000  0.0000000 )
                  (  0.0000000 -1.0000000  0.0000000 )


      isym = 25     inversion                                    

 cryst.   s(25) = (    -1          0          0      )    f =( -0.2500000 )
                  (     0         -1          0      )       ( -0.2500000 )
                  (     0          0         -1      )       ( -0.2500000 )

 cart.    s(25) = ( -1.0000000  0.0000000  0.0000000 )    f =( -0.2500000 )
                  (  0.0000000 -1.0000000  0.0000000 )       ( -0.2500000 )
                  (  0.0000000  0.0000000 -1.0000000 )       ( -0.2500000 )


      isym = 26     inv. 180 deg rotation - cart. axis [0,0,1]   

 cryst.   s(26) = (     1          0          0      )    f =( -0.2500000 )
                  (     1          0         -1      )       ( -0.2500000 )
                  (     1         -1          0      )       ( -0.2500000 )

 cart.    s(26) = (  1.0000000  0.0000000  0.0000000 )    f =( -0.2500000 )
                  (  0.0000000  1.0000000  0.0000000 )       ( -0.2500000 )
                  (  0.0000000  0.0000000 -1.0000000 )       ( -0.2500000 )


      isym = 27     inv. 180 deg rotation - cart. axis [0,1,0]   

 cryst.   s(27) = (     0          1         -1      )    f =( -0.2500000 )
                  (     0          1          0      )       ( -0.2500000 )
                  (    -1          1          0      )       ( -0.2500000 )

 cart.    s(27) = (  1.0000000  0.0000000  0.0000000 )    f =( -0.2500000 )
                  (  0.0000000 -1.0000000  0.0000000 )       ( -0.2500000 )
                  (  0.0000000  0.0000000  1.0000000 )       ( -0.2500000 )


      isym = 28     inv. 180 deg rotation - cart. axis [1,0,0]   

 cryst.   s(28) = (     0         -1          1      )    f =( -0.2500000 )
                  (    -1          0          1      )       ( -0.2500000 )
                  (     0          0          1      )       ( -0.2500000 )

 cart.    s(28) = ( -1.0000000  0.0000000  0.0000000 )    f =( -0.2500000 )
                  (  0.0000000  1.0000000  0.0000000 )       ( -0.2500000 )
                  (  0.0000000  0.0000000  1.0000000 )       ( -0.2500000 )


      isym = 29     inv. 180 deg rotation - cart. axis [1,1,0]   

 cryst.   s(29) = (    -1          0          0      )
                  (    -1          1          0      )
                  (    -1          0          1      )

 cart.    s(29) = (  0.0000000 -1.0000000  0.0000000 )
                  ( -1.0000000  0.0000000  0.0000000 )
                  (  0.0000000  0.0000000  1.0000000 )


      isym = 30     inv. 180 deg rotation - cart. axis [1,-1,0]  

 cryst.   s(30) = (     1          0          0      )
                  (     0          0          1      )
                  (     0          1          0      )

 cart.    s(30) = (  0.0000000  1.0000000  0.0000000 )
                  (  1.0000000  0.0000000  0.0000000 )
                  (  0.0000000  0.0000000  1.0000000 )


      isym = 31     inv.  90 deg rotation - cart. axis [0,0,-1]  

 cryst.   s(31) = (     0         -1          1      )
                  (     1         -1          0      )
                  (     0         -1          0      )

 cart.    s(31) = (  0.0000000 -1.0000000  0.0000000 )
                  (  1.0000000  0.0000000  0.0000000 )
                  (  0.0000000  0.0000000 -1.0000000 )


      isym = 32     inv.  90 deg rotation - cart. axis [0,0,1]   

 cryst.   s(32) = (     0          1         -1      )
                  (     0          0         -1      )
                  (     1          0         -1      )

 cart.    s(32) = (  0.0000000  1.0000000  0.0000000 )
                  ( -1.0000000  0.0000000  0.0000000 )
                  (  0.0000000  0.0000000 -1.0000000 )


      isym = 33     inv. 180 deg rotation - cart. axis [1,0,1]   

 cryst.   s(33) = (     1         -1          0      )
                  (     0         -1          0      )
                  (     0         -1          1      )

 cart.    s(33) = (  0.0000000  0.0000000 -1.0000000 )
                  (  0.0000000  1.0000000  0.0000000 )
                  ( -1.0000000  0.0000000  0.0000000 )


      isym = 34     inv. 180 deg rotation - cart. axis [-1,0,1]  

 cryst.   s(34) = (     0          0          1      )
                  (     0          1          0      )
                  (     1          0          0      )

 cart.    s(34) = (  0.0000000  0.0000000  1.0000000 )
                  (  0.0000000  1.0000000  0.0000000 )
                  (  1.0000000  0.0000000  0.0000000 )


      isym = 35     inv.  90 deg rotation - cart. axis [0,1,0]   

 cryst.   s(35) = (    -1          1          0      )
                  (    -1          0          1      )
                  (    -1          0          0      )

 cart.    s(35) = (  0.0000000  0.0000000 -1.0000000 )
                  (  0.0000000 -1.0000000  0.0000000 )
                  (  1.0000000  0.0000000  0.0000000 )


      isym = 36     inv.  90 deg rotation - cart. axis [0,-1,0]  

 cryst.   s(36) = (     0          0         -1      )
                  (     1          0         -1      )
                  (     0          1         -1      )

 cart.    s(36) = (  0.0000000  0.0000000  1.0000000 )
                  (  0.0000000 -1.0000000  0.0000000 )
                  ( -1.0000000  0.0000000  0.0000000 )


      isym = 37     inv. 180 deg rotation - cart. axis [0,1,1]   

 cryst.   s(37) = (     1          0         -1      )
                  (     0          1         -1      )
                  (     0          0         -1      )

 cart.    s(37) = (  1.0000000  0.0000000  0.0000000 )
                  (  0.0000000  0.0000000 -1.0000000 )
                  (  0.0000000 -1.0000000  0.0000000 )


      isym = 38     inv. 180 deg rotation - cart. axis [0,1,-1]  

 cryst.   s(38) = (     0          1          0      )
                  (     1          0          0      )
                  (     0          0          1      )

 cart.    s(38) = (  1.0000000  0.0000000  0.0000000 )
                  (  0.0000000  0.0000000  1.0000000 )
                  (  0.0000000  1.0000000  0.0000000 )


      isym = 39     inv.  90 deg rotation - cart. axis [-1,0,0]  

 cryst.   s(39) = (    -1          0          1      )
                  (    -1          0          0      )
                  (    -1          1          0      )

 cart.    s(39) = ( -1.0000000  0.0000000  0.0000000 )
                  (  0.0000000  0.0000000 -1.0000000 )
                  (  0.0000000  1.0000000  0.0000000 )


      isym = 40     inv.  90 deg rotation - cart. axis [1,0,0]   

 cryst.   s(40) = (     0         -1          0      )
                  (     0         -1          1      )
                  (     1         -1          0      )

 cart.    s(40) = ( -1.0000000  0.0000000  0.0000000 )
                  (  0.0000000  0.0000000  1.0000000 )
                  (  0.0000000 -1.0000000  0.0000000 )


      isym = 41     inv. 120 deg rotation - cart. axis [-1,-1,-1]

 cryst.   s(41) = (     0         -1          0      )    f =( -0.2500000 )
                  (     0          0         -1      )       ( -0.2500000 )
                  (    -1          0          0      )       ( -0.2500000 )

 cart.    s(41) = (  0.0000000 -1.0000000  0.0000000 )    f =( -0.2500000 )
                  (  0.0000000  0.0000000 -1.0000000 )       ( -0.2500000 )
                  ( -1.0000000  0.0000000  0.0000000 )       ( -0.2500000 )


      isym = 42     inv. 120 deg rotation - cart. axis [-1,1,1]  

 cryst.   s(42) = (     0          1          0      )    f =( -0.2500000 )
                  (    -1          1          0      )       ( -0.2500000 )
                  (     0          1         -1      )       ( -0.2500000 )

 cart.    s(42) = (  0.0000000  1.0000000  0.0000000 )    f =( -0.2500000 )
                  (  0.0000000  0.0000000 -1.0000000 )       ( -0.2500000 )
                  (  1.0000000  0.0000000  0.0000000 )       ( -0.2500000 )


      isym = 43     inv. 120 deg rotation - cart. axis [1,1,-1]  

 cryst.   s(43) = (    -1          0          1      )    f =( -0.2500000 )
                  (     0          0          1      )       ( -0.2500000 )
                  (     0         -1          1      )       ( -0.2500000 )

 cart.    s(43) = (  0.0000000 -1.0000000  0.0000000 )    f =( -0.2500000 )
                  (  0.0000000  0.0000000  1.0000000 )       ( -0.2500000 )
                  (  1.0000000  0.0000000  0.0000000 )       ( -0.2500000 )


      isym = 44     inv. 120 deg rotation - cart. axis [1,-1,1]  

 cryst.   s(44) = (     1          0         -1      )    f =( -0.2500000 )
                  (     1         -1          0      )       ( -0.2500000 )
                  (     1          0          0      )       ( -0.2500000 )

 cart.    s(44) = (  0.0000000  1.0000000  0.0000000 )    f =( -0.2500000 )
                  (  0.0000000  0.0000000  1.0000000 )       ( -0.2500000 )
                  ( -1.0000000  0.0000000  0.0000000 )       ( -0.2500000 )


      isym = 45     inv. 120 deg rotation - cart. axis [1,1,1]   

 cryst.   s(45) = (     0          0         -1      )    f =( -0.2500000 )
                  (    -1          0          0      )       ( -0.2500000 )
                  (     0         -1          0      )       ( -0.2500000 )

 cart.    s(45) = (  0.0000000  0.0000000 -1.0000000 )    f =( -0.2500000 )
                  ( -1.0000000  0.0000000  0.0000000 )       ( -0.2500000 )
                  (  0.0000000 -1.0000000  0.0000000 )       ( -0.2500000 )


      isym = 46     inv. 120 deg rotation - cart. axis [-1,1,-1] 

 cryst.   s(46) = (     0          0          1      )    f =( -0.2500000 )
                  (     0         -1          1      )       ( -0.2500000 )
                  (    -1          0          1      )       ( -0.2500000 )

 cart.    s(46) = (  0.0000000  0.0000000 -1.0000000 )    f =( -0.2500000 )
                  (  1.0000000  0.0000000  0.0000000 )       ( -0.2500000 )
                  (  0.0000000  1.0000000  0.0000000 )       ( -0.2500000 )


      isym = 47     inv. 120 deg rotation - cart. axis [1,-1,-1] 

 cryst.   s(47) = (     1         -1          0      )    f =( -0.2500000 )
                  (     1          0          0      )       ( -0.2500000 )
                  (     1          0         -1      )       ( -0.2500000 )

 cart.    s(47) = (  0.0000000  0.0000000  1.0000000 )    f =( -0.2500000 )
                  (  1.0000000  0.0000000  0.0000000 )       ( -0.2500000 )
                  (  0.0000000 -1.0000000  0.0000000 )       ( -0.2500000 )


      isym = 48     inv. 120 deg rotation - cart. axis [-1,-1,1] 

 cryst.   s(48) = (    -1          1          0      )    f =( -0.2500000 )
                  (     0          1         -1      )       ( -0.2500000 )
                  (     0          1          0      )       ( -0.2500000 )

 cart.    s(48) = (  0.0000000  0.0000000  1.0000000 )    f =( -0.2500000 )
                  ( -1.0000000  0.0000000  0.0000000 )       ( -0.2500000 )
                  (  0.0000000  1.0000000  0.0000000 )       ( -0.2500000 )


   Cartesian axes

     site n.     atom                  positions (alat units)
         1           Ge  tau(   1) = (   0.0000000   0.0000000   0.0000000  )
         2           Ge  tau(   2) = (   0.2500000   0.2500000   0.2500000  )

   Crystallographic axes

     site n.     atom                  positions (cryst. coord.)
         1           Ge  tau(   1) = (  0.0000000  0.0000000  0.0000000  )
         2           Ge  tau(   2) = (  0.2500000  0.2500000  0.2500000  )

     number of k points=    81  Marzari-Vanderbilt smearing, width (Ry)=  0.0050
                       cart. coord. in units 2pi/alat
        k(    1) = (   0.5000000   0.5000000   0.5000000), wk =   0.0123457
        k(    2) = (   0.4750000   0.4750000   0.4750000), wk =   0.0123457
        k(    3) = (   0.4500000   0.4500000   0.4500000), wk =   0.0123457
        k(    4) = (   0.4250000   0.4250000   0.4250000), wk =   0.0123457
        k(    5) = (   0.4000000   0.4000000   0.4000000), wk =   0.0123457
        k(    6) = (   0.3750000   0.3750000   0.3750000), wk =   0.0123457
        k(    7) = (   0.3500000   0.3500000   0.3500000), wk =   0.0123457
        k(    8) = (   0.3250000   0.3250000   0.3250000), wk =   0.0123457
        k(    9) = (   0.3000000   0.3000000   0.3000000), wk =   0.0123457
        k(   10) = (   0.2750000   0.2750000   0.2750000), wk =   0.0123457
        k(   11) = (   0.2500000   0.2500000   0.2500000), wk =   0.0123457
        k(   12) = (   0.2250000   0.2250000   0.2250000), wk =   0.0123457
        k(   13) = (   0.2000000   0.2000000   0.2000000), wk =   0.0123457
        k(   14) = (   0.1750000   0.1750000   0.1750000), wk =   0.0123457
        k(   15) = (   0.1500000   0.1500000   0.1500000), wk =   0.0123457
        k(   16) = (   0.1250000   0.1250000   0.1250000), wk =   0.0123457
        k(   17) = (   0.1000000   0.1000000   0.1000000), wk =   0.0123457
        k(   18) = (   0.0750000   0.0750000   0.0750000), wk =   0.0123457
        k(   19) = (   0.0500000   0.0500000   0.0500000), wk =   0.0123457
        k(   20) = (   0.0250000   0.0250000   0.0250000), wk =   0.0123457
        k(   21) = (   0.0000000   0.0000000   0.0000000), wk =   0.0123457
        k(   22) = (   0.0000000   0.0500000   0.0000000), wk =   0.0123457
        k(   23) = (   0.0000000   0.1000000   0.0000000), wk =   0.0123457
        k(   24) = (   0.0000000   0.1500000   0.0000000), wk =   0.0123457
        k(   25) = (   0.0000000   0.2000000   0.0000000), wk =   0.0123457
        k(   26) = (   0.0000000   0.2500000   0.0000000), wk =   0.0123457
        k(   27) = (   0.0000000   0.3000000   0.0000000), wk =   0.0123457
        k(   28) = (   0.0000000   0.3500000   0.0000000), wk =   0.0123457
        k(   29) = (   0.0000000   0.4000000   0.0000000), wk =   0.0123457
        k(   30) = (   0.0000000   0.4500000   0.0000000), wk =   0.0123457
        k(   31) = (   0.0000000   0.5000000   0.0000000), wk =   0.0123457
        k(   32) = (   0.0000000   0.5500000   0.0000000), wk =   0.0123457
        k(   33) = (   0.0000000   0.6000000   0.0000000), wk =   0.0123457
        k(   34) = (   0.0000000   0.6500000   0.0000000), wk =   0.0123457
        k(   35) = (   0.0000000   0.7000000   0.0000000), wk =   0.0123457
        k(   36) = (   0.0000000   0.7500000   0.0000000), wk =   0.0123457
        k(   37) = (   0.0000000   0.8000000   0.0000000), wk =   0.0123457
        k(   38) = (   0.0000000   0.8500000   0.0000000), wk =   0.0123457
        k(   39) = (   0.0000000   0.9000000   0.0000000), wk =   0.0123457
        k(   40) = (   0.0000000   0.9500000   0.0000000), wk =   0.0123457
        k(   41) = (   0.0000000   1.0000000   0.0000000), wk =   0.0123457
        k(   42) = (   0.0000000   0.9875000   0.0375000), wk =   0.0123457
        k(   43) = (   0.0000000   0.9750000   0.0750000), wk =   0.0123457
        k(   44) = (   0.0000000   0.9625000   0.1125000), wk =   0.0123457
        k(   45) = (   0.0000000   0.9500000   0.1500000), wk =   0.0123457
        k(   46) = (  -0.0000000   0.9375000   0.1875000), wk =   0.0123457
        k(   47) = (   0.0000000   0.9250000   0.2250000), wk =   0.0123457
        k(   48) = (   0.0000000   0.9125000   0.2625000), wk =   0.0123457
        k(   49) = (   0.0000000   0.9000000   0.3000000), wk =   0.0123457
        k(   50) = (   0.0000000   0.8875000   0.3375000), wk =   0.0123457
        k(   51) = (   0.0000000   0.8750000   0.3750000), wk =   0.0123457
        k(   52) = (   0.0000000   0.8625000   0.4125000), wk =   0.0123457
        k(   53) = (   0.0000000   0.8500000   0.4500000), wk =   0.0123457
        k(   54) = (   0.0000000   0.8375000   0.4875000), wk =   0.0123457
        k(   55) = (  -0.0000000   0.8250000   0.5250000), wk =   0.0123457
        k(   56) = (   0.0000000   0.8125000   0.5625000), wk =   0.0123457
        k(   57) = (   0.0000000   0.8000000   0.6000000), wk =   0.0123457
        k(   58) = (   0.0000000   0.7875000   0.6375000), wk =   0.0123457
        k(   59) = (   0.0000000   0.7750000   0.6750000), wk =   0.0123457
        k(   60) = (   0.0000000   0.7625000   0.7125000), wk =   0.0123457
        k(   61) = (   0.0000000   0.7500000   0.7500000), wk =   0.0123457
        k(   62) = (   0.0000000   0.7125000   0.7125000), wk =   0.0123457
        k(   63) = (   0.0000000   0.6750000   0.6750000), wk =   0.0123457
        k(   64) = (   0.0000000   0.6375000   0.6375000), wk =   0.0123457
        k(   65) = (   0.0000000   0.6000000   0.6000000), wk =   0.0123457
        k(   66) = (   0.0000000   0.5625000   0.5625000), wk =   0.0123457
        k(   67) = (   0.0000000   0.5250000   0.5250000), wk =   0.0123457
        k(   68) = (   0.0000000   0.4875000   0.4875000), wk =   0.0123457
        k(   69) = (   0.0000000   0.4500000   0.4500000), wk =   0.0123457
        k(   70) = (   0.0000000   0.4125000   0.4125000), wk =   0.0123457
        k(   71) = (   0.0000000   0.3750000   0.3750000), wk =   0.0123457
        k(   72) = (   0.0000000   0.3375000   0.3375000), wk =   0.0123457
        k(   73) = (   0.0000000   0.3000000   0.3000000), wk =   0.0123457
        k(   74) = (   0.0000000   0.2625000   0.2625000), wk =   0.0123457
        k(   75) = (   0.0000000   0.2250000   0.2250000), wk =   0.0123457
        k(   76) = (   0.0000000   0.1875000   0.1875000), wk =   0.0123457
        k(   77) = (   0.0000000   0.1500000   0.1500000), wk =   0.0123457
        k(   78) = (   0.0000000   0.1125000   0.1125000), wk =   0.0123457
        k(   79) = (   0.0000000   0.0750000   0.0750000), wk =   0.0123457
        k(   80) = (   0.0000000   0.0375000   0.0375000), wk =   0.0123457
        k(   81) = (   0.0000000   0.0000000   0.0000000), wk =   0.0123457

                       cryst. coord.
        k(    1) = (   0.5000000   0.5000000   0.5000000), wk =   0.0123457
        k(    2) = (   0.4750000   0.4750000   0.4750000), wk =   0.0123457
        k(    3) = (   0.4500000   0.4500000   0.4500000), wk =   0.0123457
        k(    4) = (   0.4250000   0.4250000   0.4250000), wk =   0.0123457
        k(    5) = (   0.4000000   0.4000000   0.4000000), wk =   0.0123457
        k(    6) = (   0.3750000   0.3750000   0.3750000), wk =   0.0123457
        k(    7) = (   0.3500000   0.3500000   0.3500000), wk =   0.0123457
        k(    8) = (   0.3250000   0.3250000   0.3250000), wk =   0.0123457
        k(    9) = (   0.3000000   0.3000000   0.3000000), wk =   0.0123457
        k(   10) = (   0.2750000   0.2750000   0.2750000), wk =   0.0123457
        k(   11) = (   0.2500000   0.2500000   0.2500000), wk =   0.0123457
        k(   12) = (   0.2250000   0.2250000   0.2250000), wk =   0.0123457
        k(   13) = (   0.2000000   0.2000000   0.2000000), wk =   0.0123457
        k(   14) = (   0.1750000   0.1750000   0.1750000), wk =   0.0123457
        k(   15) = (   0.1500000   0.1500000   0.1500000), wk =   0.0123457
        k(   16) = (   0.1250000   0.1250000   0.1250000), wk =   0.0123457
        k(   17) = (   0.1000000   0.1000000   0.1000000), wk =   0.0123457
        k(   18) = (   0.0750000   0.0750000   0.0750000), wk =   0.0123457
        k(   19) = (   0.0500000   0.0500000   0.0500000), wk =   0.0123457
        k(   20) = (   0.0250000   0.0250000   0.0250000), wk =   0.0123457
        k(   21) = (   0.0000000   0.0000000   0.0000000), wk =   0.0123457
        k(   22) = (   0.0250000   0.0000000   0.0250000), wk =   0.0123457
        k(   23) = (   0.0500000   0.0000000   0.0500000), wk =   0.0123457
        k(   24) = (   0.0750000   0.0000000   0.0750000), wk =   0.0123457
        k(   25) = (   0.1000000   0.0000000   0.1000000), wk =   0.0123457
        k(   26) = (   0.1250000   0.0000000   0.1250000), wk =   0.0123457
        k(   27) = (   0.1500000   0.0000000   0.1500000), wk =   0.0123457
        k(   28) = (   0.1750000   0.0000000   0.1750000), wk =   0.0123457
        k(   29) = (   0.2000000   0.0000000   0.2000000), wk =   0.0123457
        k(   30) = (   0.2250000   0.0000000   0.2250000), wk =   0.0123457
        k(   31) = (   0.2500000   0.0000000   0.2500000), wk =   0.0123457
        k(   32) = (   0.2750000   0.0000000   0.2750000), wk =   0.0123457
        k(   33) = (   0.3000000   0.0000000   0.3000000), wk =   0.0123457
        k(   34) = (   0.3250000   0.0000000   0.3250000), wk =   0.0123457
        k(   35) = (   0.3500000   0.0000000   0.3500000), wk =   0.0123457
        k(   36) = (   0.3750000   0.0000000   0.3750000), wk =   0.0123457
        k(   37) = (   0.4000000   0.0000000   0.4000000), wk =   0.0123457
        k(   38) = (   0.4250000   0.0000000   0.4250000), wk =   0.0123457
        k(   39) = (   0.4500000   0.0000000   0.4500000), wk =   0.0123457
        k(   40) = (   0.4750000   0.0000000   0.4750000), wk =   0.0123457
        k(   41) = (   0.5000000   0.0000000   0.5000000), wk =   0.0123457
        k(   42) = (   0.4937500   0.0187500   0.5125000), wk =   0.0123457
        k(   43) = (   0.4875000   0.0375000   0.5250000), wk =   0.0123457
        k(   44) = (   0.4812500   0.0562500   0.5375000), wk =   0.0123457
        k(   45) = (   0.4750000   0.0750000   0.5500000), wk =   0.0123457
        k(   46) = (   0.4687500   0.0937500   0.5625000), wk =   0.0123457
        k(   47) = (   0.4625000   0.1125000   0.5750000), wk =   0.0123457
        k(   48) = (   0.4562500   0.1312500   0.5875000), wk =   0.0123457
        k(   49) = (   0.4500000   0.1500000   0.6000000), wk =   0.0123457
        k(   50) = (   0.4437500   0.1687500   0.6125000), wk =   0.0123457
        k(   51) = (   0.4375000   0.1875000   0.6250000), wk =   0.0123457
        k(   52) = (   0.4312500   0.2062500   0.6375000), wk =   0.0123457
        k(   53) = (   0.4250000   0.2250000   0.6500000), wk =   0.0123457
        k(   54) = (   0.4187500   0.2437500   0.6625000), wk =   0.0123457
        k(   55) = (   0.4125000   0.2625000   0.6750000), wk =   0.0123457
        k(   56) = (   0.4062500   0.2812500   0.6875000), wk =   0.0123457
        k(   57) = (   0.4000000   0.3000000   0.7000000), wk =   0.0123457
        k(   58) = (   0.3937500   0.3187500   0.7125000), wk =   0.0123457
        k(   59) = (   0.3875000   0.3375000   0.7250000), wk =   0.0123457
        k(   60) = (   0.3812500   0.3562500   0.7375000), wk =   0.0123457
        k(   61) = (   0.3750000   0.3750000   0.7500000), wk =   0.0123457
        k(   62) = (   0.3562500   0.3562500   0.7125000), wk =   0.0123457
        k(   63) = (   0.3375000   0.3375000   0.6750000), wk =   0.0123457
        k(   64) = (   0.3187500   0.3187500   0.6375000), wk =   0.0123457
        k(   65) = (   0.3000000   0.3000000   0.6000000), wk =   0.0123457
        k(   66) = (   0.2812500   0.2812500   0.5625000), wk =   0.0123457
        k(   67) = (   0.2625000   0.2625000   0.5250000), wk =   0.0123457
        k(   68) = (   0.2437500   0.2437500   0.4875000), wk =   0.0123457
        k(   69) = (   0.2250000   0.2250000   0.4500000), wk =   0.0123457
        k(   70) = (   0.2062500   0.2062500   0.4125000), wk =   0.0123457
        k(   71) = (   0.1875000   0.1875000   0.3750000), wk =   0.0123457
        k(   72) = (   0.1687500   0.1687500   0.3375000), wk =   0.0123457
        k(   73) = (   0.1500000   0.1500000   0.3000000), wk =   0.0123457
        k(   74) = (   0.1312500   0.1312500   0.2625000), wk =   0.0123457
        k(   75) = (   0.1125000   0.1125000   0.2250000), wk =   0.0123457
        k(   76) = (   0.0937500   0.0937500   0.1875000), wk =   0.0123457
        k(   77) = (   0.0750000   0.0750000   0.1500000), wk =   0.0123457
        k(   78) = (   0.0562500   0.0562500   0.1125000), wk =   0.0123457
        k(   79) = (   0.0375000   0.0375000   0.0750000), wk =   0.0123457
        k(   80) = (   0.0187500   0.0187500   0.0375000), wk =   0.0123457
        k(   81) = (   0.0000000   0.0000000   0.0000000), wk =   0.0123457

     Dense  grid:    14553 G-vectors     FFT dimensions: (  36,  36,  36)

     Dynamical RAM for                 wfc:       1.00 MB

     Dynamical RAM for     wfc (w. buffer):       1.00 MB

     Dynamical RAM for           str. fact:       0.11 MB

     Dynamical RAM for           local pot:       0.00 MB

     Dynamical RAM for          nlocal pot:       0.95 MB

     Dynamical RAM for                qrad:       2.98 MB

     Dynamical RAM for          rho,v,vnew:       3.47 MB

     Dynamical RAM for           G-vectors:       0.47 MB

     Dynamical RAM for          h,s,v(r/c):       0.95 MB

     Dynamical RAM for          <psi|beta>:       0.07 MB

     Dynamical RAM for                 psi:       4.01 MB

     Dynamical RAM for                hpsi:       4.01 MB

     Dynamical RAM for                spsi:       4.01 MB

     Dynamical RAM for      wfcinit/wfcrot:       1.53 MB

     Dynamical RAM for           addusdens:      67.96 MB

     Estimated static dynamical RAM per process >      10.62 MB

     Estimated max dynamical RAM per process >      78.58 MB

     Estimated total dynamical RAM >     157.15 MB

     Check: negative core charge=   -0.000006

     The potential is recalculated from file :
     ./outputs/ge.save/charge-density

     Starting wfcs are   36 randomized atomic wfcs
     Checking if some PAW data can be deallocated... 

     Band Structure Calculation
     Davidson diagonalization with overlap

     Computing kpt #:     1  of    81
     total cpu time spent up to now is        2.7 secs

     Computing kpt #:     2  of    81
     total cpu time spent up to now is        3.7 secs

     Computing kpt #:     3  of    81
     total cpu time spent up to now is        4.7 secs

     Computing kpt #:     4  of    81
     total cpu time spent up to now is        5.8 secs

     Computing kpt #:     5  of    81
     total cpu time spent up to now is        6.9 secs

     Computing kpt #:     6  of    81
     total cpu time spent up to now is        8.0 secs

     Computing kpt #:     7  of    81
     total cpu time spent up to now is        8.8 secs

     Computing kpt #:     8  of    81
     total cpu time spent up to now is        9.8 secs

     Computing kpt #:     9  of    81
     total cpu time spent up to now is       10.7 secs

     Computing kpt #:    10  of    81
     total cpu time spent up to now is       11.6 secs

     Computing kpt #:    11  of    81
     total cpu time spent up to now is       12.5 secs

     Computing kpt #:    12  of    81
     total cpu time spent up to now is       13.4 secs

     Computing kpt #:    13  of    81
     total cpu time spent up to now is       14.3 secs

     Computing kpt #:    14  of    81
     total cpu time spent up to now is       15.1 secs

     Computing kpt #:    15  of    81
     total cpu time spent up to now is       16.0 secs

     Computing kpt #:    16  of    81
     total cpu time spent up to now is       16.9 secs

     Computing kpt #:    17  of    81
     total cpu time spent up to now is        1.2 secs

     Computing kpt #:    18  of    81
     total cpu time spent up to now is        2.1 secs

     Computing kpt #:    19  of    81
     total cpu time spent up to now is        3.0 secs

     Computing kpt #:    20  of    81
     total cpu time spent up to now is        3.9 secs

     Computing kpt #:    21  of    81
     total cpu time spent up to now is        4.8 secs

     Computing kpt #:    22  of    81
     total cpu time spent up to now is        5.6 secs

     Computing kpt #:    23  of    81
     total cpu time spent up to now is        6.5 secs

     Computing kpt #:    24  of    81
     total cpu time spent up to now is        7.3 secs

     Computing kpt #:    25  of    81
     total cpu time spent up to now is        8.2 secs

     Computing kpt #:    26  of    81
     total cpu time spent up to now is        9.0 secs

     Computing kpt #:    27  of    81
     total cpu time spent up to now is       10.0 secs

     Computing kpt #:    28  of    81
     total cpu time spent up to now is       10.9 secs

     Computing kpt #:    29  of    81
     total cpu time spent up to now is       11.7 secs

     Computing kpt #:    30  of    81
     total cpu time spent up to now is       12.6 secs

     Computing kpt #:    31  of    81
     total cpu time spent up to now is       13.4 secs

     Computing kpt #:    32  of    81
     total cpu time spent up to now is       14.5 secs

     Computing kpt #:    33  of    81
     total cpu time spent up to now is       15.5 secs

     Computing kpt #:    34  of    81
     total cpu time spent up to now is       16.3 secs

     Computing kpt #:    35  of    81
     total cpu time spent up to now is       17.5 secs

     Computing kpt #:    36  of    81
     total cpu time spent up to now is       18.4 secs

     Computing kpt #:    37  of    81
     total cpu time spent up to now is       19.2 secs

     Computing kpt #:    38  of    81
     total cpu time spent up to now is       20.1 secs

     Computing kpt #:    39  of    81
     total cpu time spent up to now is       21.0 secs

     Computing kpt #:    40  of    81
     total cpu time spent up to now is        4.2 secs

     Computing kpt #:    41  of    81
     total cpu time spent up to now is        5.1 secs

     Computing kpt #:    42  of    81
     total cpu time spent up to now is        5.9 secs

     Computing kpt #:    43  of    81
     total cpu time spent up to now is        6.9 secs

     Computing kpt #:    44  of    81
     total cpu time spent up to now is        7.7 secs

     Computing kpt #:    45  of    81
     total cpu time spent up to now is        8.6 secs

     Computing kpt #:    46  of    81
     total cpu time spent up to now is        9.6 secs

     Computing kpt #:    47  of    81
     total cpu time spent up to now is       10.5 secs

     Computing kpt #:    48  of    81
     total cpu time spent up to now is       11.5 secs

     Computing kpt #:    49  of    81
     total cpu time spent up to now is       12.4 secs

     Computing kpt #:    50  of    81
     total cpu time spent up to now is       13.3 secs

     Computing kpt #:    51  of    81
     total cpu time spent up to now is       65.4 secs

     Computing kpt #:    52  of    81
     total cpu time spent up to now is       66.3 secs

     Computing kpt #:    53  of    81
     total cpu time spent up to now is       67.2 secs

     Computing kpt #:    54  of    81
     total cpu time spent up to now is       68.0 secs

     Computing kpt #:    55  of    81
     total cpu time spent up to now is       69.0 secs

     Computing kpt #:    56  of    81
     total cpu time spent up to now is       69.9 secs

     Computing kpt #:    57  of    81
     total cpu time spent up to now is       70.7 secs

     Computing kpt #:    58  of    81
     total cpu time spent up to now is       71.6 secs

     Computing kpt #:    59  of    81
     total cpu time spent up to now is       72.6 secs

     Computing kpt #:    60  of    81
     total cpu time spent up to now is       73.5 secs

     Computing kpt #:    61  of    81
     total cpu time spent up to now is       74.4 secs

     Computing kpt #:    62  of    81
     total cpu time spent up to now is       75.3 secs

     Computing kpt #:    63  of    81
     total cpu time spent up to now is       76.3 secs

     Computing kpt #:    64  of    81
     total cpu time spent up to now is       77.3 secs

     Computing kpt #:    65  of    81
     total cpu time spent up to now is       78.2 secs

     Computing kpt #:    66  of    81
     total cpu time spent up to now is       79.2 secs

     Computing kpt #:    67  of    81
     total cpu time spent up to now is       80.0 secs

     Computing kpt #:    68  of    81
     total cpu time spent up to now is       80.9 secs

     Computing kpt #:    69  of    81
     total cpu time spent up to now is       81.8 secs

     Computing kpt #:    70  of    81
     total cpu time spent up to now is       82.7 secs

     Computing kpt #:    71  of    81
     total cpu time spent up to now is       83.6 secs

     Computing kpt #:    72  of    81
     total cpu time spent up to now is       84.4 secs

     Computing kpt #:    73  of    81
     total cpu time spent up to now is       67.5 secs

     Computing kpt #:    74  of    81
     total cpu time spent up to now is       68.3 secs

     Computing kpt #:    75  of    81
     total cpu time spent up to now is       69.3 secs

     Computing kpt #:    76  of    81
     total cpu time spent up to now is       70.2 secs

     Computing kpt #:    77  of    81
     total cpu time spent up to now is       71.0 secs

     Computing kpt #:    78  of    81
     total cpu time spent up to now is       71.9 secs

     Computing kpt #:    79  of    81
     total cpu time spent up to now is       72.7 secs

     Computing kpt #:    80  of    81
     total cpu time spent up to now is       73.6 secs

     Computing kpt #:    81  of    81
     total cpu time spent up to now is       74.4 secs

     ethr =  3.57E-11,  avg # of iterations = 14.0

     total cpu time spent up to now is       74.4 secs

     End of band structure calculation

          k = 0.5000 0.5000 0.5000 (  1850 PWs)   bands (ev):

   -16.5960 -16.5960 -16.5635 -16.5635 -16.5503 -16.5503 -16.5159 -16.5159
   -16.0339 -16.0339 -16.0126 -16.0126 -15.9736 -15.9736 -15.8749 -15.8749
   -15.8674 -15.8674 -15.8632 -15.8632  -2.1912  -2.1912   0.8928   0.8928
     6.9924   6.9924   7.1784   7.1784   8.6770   8.6770  12.1852  12.1852
    12.2781  12.2781  15.6435  15.6435

          k = 0.4750 0.4750 0.4750 (  1826 PWs)   bands (ev):

   -16.5956 -16.5956 -16.5638 -16.5638 -16.5495 -16.5495 -16.5159 -16.5159
   -16.0346 -16.0346 -16.0116 -16.0116 -15.9731 -15.9731 -15.8749 -15.8749
   -15.8677 -15.8677 -15.8625 -15.8625  -2.2194  -2.2194   0.9367   0.9367
     6.9978   6.9978   7.1839   7.1839   8.6822   8.6822  12.1873  12.1873
    12.2806  12.2806  15.6511  15.6511

          k = 0.4500 0.4500 0.4500 (  1823 PWs)   bands (ev):

   -16.5955 -16.5955 -16.5647 -16.5647 -16.5485 -16.5485 -16.5161 -16.5161
   -16.0365 -16.0365 -16.0098 -16.0098 -15.9728 -15.9728 -15.8753 -15.8753
   -15.8690 -15.8690 -15.8611 -15.8611  -2.2995  -2.2995   1.0636   1.0636
     7.0141   7.0141   7.2002   7.2002   8.6978   8.6978  12.1929  12.1929
    12.2878  12.2878  15.6730  15.6730

          k = 0.4250 0.4250 0.4250 (  1838 PWs)   bands (ev):

   -16.5954 -16.5954 -16.5665 -16.5665 -16.5472 -16.5472 -16.5165 -16.5165
   -16.0394 -16.0394 -16.0072 -16.0072 -15.9723 -15.9723 -15.8764 -15.8764
   -15.8706 -15.8706 -15.8596 -15.8596  -2.4199  -2.4199   1.2620   1.2620
     7.0411   7.0411   7.2272   7.2272   8.7237   8.7237  12.2010  12.2010
    12.2983  12.2983  15.7065  15.7065

          k = 0.4000 0.4000 0.4000 (  1832 PWs)   bands (ev):

   -16.5952 -16.5952 -16.5681 -16.5681 -16.5456 -16.5456 -16.5167 -16.5167
   -16.0426 -16.0426 -16.0041 -16.0041 -15.9716 -15.9716 -15.8772 -15.8772
   -15.8723 -15.8723 -15.8579 -15.8579  -2.5672  -2.5672   1.5183   1.5183
     7.0789   7.0789   7.2650   7.2650   8.7599   8.7599  12.2093  12.2093
    12.3102  12.3102  15.7443  15.7443

          k = 0.3750 0.3750 0.3750 (  1838 PWs)   bands (ev):

   -16.5950 -16.5950 -16.5700 -16.5700 -16.5441 -16.5441 -16.5172 -16.5172
   -16.0462 -16.0462 -16.0008 -16.0008 -15.9708 -15.9708 -15.8785 -15.8785
   -15.8741 -15.8741 -15.8562 -15.8562  -2.7299  -2.7299   1.8207   1.8207
     7.1271   7.1271   7.3133   7.3133   8.8060   8.8060  12.2149  12.2149
    12.3203  12.3203  15.7645  15.7645

          k = 0.3500 0.3500 0.3500 (  1847 PWs)   bands (ev):

   -16.5948 -16.5948 -16.5721 -16.5721 -16.5424 -16.5424 -16.5179 -16.5179
   -16.0502 -16.0502 -15.9972 -15.9972 -15.9697 -15.9697 -15.8800 -15.8800
   -15.8760 -15.8760 -15.8545 -15.8545  -2.8991  -2.8991   2.1601   2.1601
     7.1856   7.1856   7.3719   7.3719   8.8617   8.8617  12.2139  12.2139
    12.3247  12.3247  15.6968  15.6968

          k = 0.3250 0.3250 0.3250 (  1853 PWs)   bands (ev):

   -16.5944 -16.5944 -16.5740 -16.5740 -16.5408 -16.5408 -16.5186 -16.5186
   -16.0542 -16.0542 -15.9934 -15.9934 -15.9685 -15.9685 -15.8818 -15.8818
   -15.8780 -15.8780 -15.8528 -15.8528  -3.0684  -3.0684   2.5295   2.5295
     7.2541   7.2541   7.4405   7.4405   8.9265   8.9265  12.2018  12.2018
    12.3187  12.3187  15.4332  15.4332

          k = 0.3000 0.3000 0.3000 (  1841 PWs)   bands (ev):

   -16.5938 -16.5938 -16.5758 -16.5758 -16.5390 -16.5390 -16.5192 -16.5192
   -16.0581 -16.0581 -15.9893 -15.9893 -15.9668 -15.9668 -15.8835 -15.8835
   -15.8800 -15.8800 -15.8510 -15.8510  -3.2335  -3.2335   2.9241   2.9241
     7.3321   7.3321   7.5186   7.5186   8.9997   8.9997  12.1739  12.1739
    12.2973  12.2973  15.0323  15.0323

          k = 0.2750 0.2750 0.2750 (  1835 PWs)   bands (ev):

   -16.5934 -16.5934 -16.5776 -16.5776 -16.5372 -16.5372 -16.5200 -16.5200
   -16.0621 -16.0621 -15.9852 -15.9852 -15.9651 -15.9651 -15.8856 -15.8856
   -15.8821 -15.8821 -15.8492 -15.8492  -3.3910  -3.3910   3.3401   3.3401
     7.4190   7.4190   7.6058   7.6058   9.0802   9.0802  12.1259  12.1259
    12.2556  12.2556  14.5893  14.5893

          k = 0.2500 0.2500 0.2500 (  1847 PWs)   bands (ev):

   -16.5930 -16.5930 -16.5796 -16.5796 -16.5357 -16.5357 -16.5209 -16.5209
   -16.0662 -16.0662 -15.9810 -15.9810 -15.9635 -15.9635 -15.8880 -15.8880
   -15.8846 -15.8846 -15.8475 -15.8475  -3.5390  -3.5390   3.7744   3.7744
     7.5141   7.5141   7.7013   7.7013   9.1664   9.1664  12.0549  12.0549
    12.1903  12.1903  14.1368  14.1368

          k = 0.2250 0.2250 0.2250 (  1832 PWs)   bands (ev):

   -16.5924 -16.5924 -16.5810 -16.5810 -16.5341 -16.5341 -16.5217 -16.5217
   -16.0698 -16.0698 -15.9765 -15.9765 -15.9616 -15.9616 -15.8902 -15.8902
   -15.8870 -15.8870 -15.8458 -15.8458  -3.6757  -3.6757   4.2246   4.2246
     7.6163   7.6163   7.8040   7.8040   9.2558   9.2558  11.9603  11.9603
    12.1002  12.1002  13.6851  13.6851

          k = 0.2000 0.2000 0.2000 (  1841 PWs)   bands (ev):

   -16.5920 -16.5920 -16.5827 -16.5827 -16.5328 -16.5328 -16.5226 -16.5226
   -16.0736 -16.0736 -15.9722 -15.9722 -15.9598 -15.9598 -15.8926 -15.8926
   -15.8896 -15.8896 -15.8444 -15.8444  -3.8000  -3.8000   4.6882   4.6882
     7.7242   7.7242   7.9125   7.9125   9.3449   9.3449  11.8441  11.8441
    11.9870  11.9870  13.2389  13.2389

          k = 0.1750 0.1750 0.1750 (  1835 PWs)   bands (ev):

   -16.5914 -16.5914 -16.5839 -16.5839 -16.5315 -16.5315 -16.5235 -16.5235
   -16.0769 -16.0769 -15.9680 -15.9680 -15.9578 -15.9578 -15.8949 -15.8949
   -15.8922 -15.8922 -15.8430 -15.8430  -3.9110  -3.9110   5.1630   5.1630
     7.8359   7.8359   8.0250   8.0250   9.4279   9.4279  11.7109  11.7109
    11.8553  11.8553  12.8023  12.8023

          k = 0.1500 0.1500 0.1500 (  1829 PWs)   bands (ev):

   -16.5908 -16.5908 -16.5852 -16.5852 -16.5303 -16.5303 -16.5241 -16.5241
   -16.0798 -16.0798 -15.9637 -15.9637 -15.9559 -15.9559 -15.8973 -15.8973
   -15.8947 -15.8947 -15.8418 -15.8418  -4.0082  -4.0082   5.6465   5.6465
     7.9489   7.9489   8.1390   8.1390   9.4958   9.4958  11.5672  11.5672
    11.7119  11.7119  12.3814  12.3814

          k = 0.1250 0.1250 0.1250 (  1841 PWs)   bands (ev):

   -16.5903 -16.5903 -16.5864 -16.5864 -16.5295 -16.5295 -16.5250 -16.5250
   -16.0826 -16.0826 -15.9600 -15.9600 -15.9541 -15.9541 -15.8996 -15.8996
   -15.8974 -15.8974 -15.8409 -15.8409  -4.0911  -4.0911   6.1356   6.1356
     8.0598   8.0598   8.2509   8.2509   9.5339   9.5339  11.4202  11.4202
    11.5652  11.5652  11.9876  11.9876

          k = 0.1000 0.1000 0.1000 (  1835 PWs)   bands (ev):

   -16.5898 -16.5898 -16.5874 -16.5874 -16.5285 -16.5285 -16.5255 -16.5255
   -16.0849 -16.0849 -15.9563 -15.9563 -15.9522 -15.9522 -15.9016 -15.9016
   -15.9000 -15.9000 -15.8400 -15.8400  -4.1593  -4.1593   6.6270   6.6270
     8.1642   8.1642   8.3564   8.3564   9.5194   9.5194  11.2763  11.2763
    11.4244  11.4244  11.6420  11.6420

          k = 0.0750 0.0750 0.0750 (  1835 PWs)   bands (ev):

   -16.5896 -16.5896 -16.5881 -16.5881 -16.5277 -16.5277 -16.5260 -16.5260
   -16.0869 -16.0869 -15.9531 -15.9531 -15.9506 -15.9506 -15.9033 -15.9033
   -15.9023 -15.9023 -15.8392 -15.8392  -4.2126  -4.2126   7.1156   7.1156
     8.2568   8.2568   8.4497   8.4497   9.4226   9.4226  11.1384  11.1384
    11.2995  11.2995  11.3770  11.3770

          k = 0.0500 0.0500 0.0500 (  1828 PWs)   bands (ev):

   -16.5893 -16.5893 -16.5885 -16.5885 -16.5272 -16.5272 -16.5264 -16.5264
   -16.0881 -16.0881 -15.9506 -15.9506 -15.9494 -15.9494 -15.9046 -15.9046
   -15.9041 -15.9041 -15.8386 -15.8386  -4.2508  -4.2508   7.5939   7.5939
     8.3318   8.3318   8.5240   8.5240   9.2201   9.2201  11.0138  11.0138
    11.2003  11.2003  11.2154  11.2154

          k = 0.0250 0.0250 0.0250 (  1834 PWs)   bands (ev):

   -16.5892 -16.5892 -16.5889 -16.5889 -16.5269 -16.5269 -16.5267 -16.5267
   -16.0890 -16.0890 -15.9489 -15.9489 -15.9486 -15.9486 -15.9056 -15.9056
   -15.9054 -15.9054 -15.8383 -15.8383  -4.2738  -4.2738   8.0429   8.0429
     8.3900   8.3900   8.5723   8.5723   8.9177   8.9177  10.9295  10.9295
    11.1362  11.1362  11.1371  11.1371

          k = 0.0000 0.0000 0.0000 (  1837 PWs)   bands (ev):

   -16.5892 -16.5892 -16.5892 -16.5892 -16.5268 -16.5268 -16.5268 -16.5268
   -16.0894 -16.0894 -15.9484 -15.9484 -15.9484 -15.9484 -15.9059 -15.9059
   -15.9059 -15.9059 -15.8382 -15.8382  -4.2814  -4.2814   8.2949   8.2949
     8.5329   8.5329   8.5891   8.5891   8.5891   8.5891  10.9010  10.9010
    11.1139  11.1139  11.1139  11.1139

          k = 0.0000 0.0500 0.0000 (  1828 PWs)   bands (ev):

   -16.5890 -16.5890 -16.5889 -16.5889 -16.5269 -16.5269 -16.5266 -16.5266
   -16.0888 -16.0888 -15.9493 -15.9493 -15.9485 -15.9485 -15.9056 -15.9056
   -15.9051 -15.9051 -15.8384 -15.8384  -4.2712  -4.2712   8.0013   8.0013
     8.3583   8.3583   8.5328   8.5328   9.0061   9.0061  10.9254  10.9254
    11.1243  11.1243  11.1746  11.1746

          k = 0.0000 0.1000 0.0000 (  1824 PWs)   bands (ev):

   -16.5890 -16.5890 -16.5885 -16.5885 -16.5273 -16.5273 -16.5263 -16.5263
   -16.0876 -16.0876 -15.9520 -15.9520 -15.9489 -15.9489 -15.9047 -15.9047
   -15.9031 -15.9031 -15.8388 -15.8388  -4.2406  -4.2406   7.5342   7.5342
     8.2181   8.2181   8.3808   8.3808   9.4702   9.4702  10.8862  10.8862
    11.2569  11.2569  11.3449  11.3449

          k = 0.0000 0.1500 0.0000 (  1836 PWs)   bands (ev):

   -16.5893 -16.5893 -16.5880 -16.5880 -16.5283 -16.5283 -16.5258 -16.5258
   -16.0859 -16.0859 -15.9560 -15.9560 -15.9499 -15.9499 -15.9035 -15.9035
   -15.9006 -15.9006 -15.8395 -15.8395  -4.1896  -4.1896   7.0569   7.0569
     8.0266   8.0266   8.1679   8.1679   9.9245   9.9245  10.7557  10.7557
    11.5196  11.5196  11.5990  11.5990

          k = 0.0000 0.2000 0.0000 (  1840 PWs)   bands (ev):

   -16.5896 -16.5896 -16.5874 -16.5874 -16.5292 -16.5292 -16.5250 -16.5250
   -16.0835 -16.0835 -15.9608 -15.9608 -15.9508 -15.9508 -15.9017 -15.9017
   -15.8977 -15.8977 -15.8404 -15.8404  -4.1183  -4.1183   6.5793   6.5793
     7.8027   7.8027   7.9235   7.9235  10.3558  10.3558  10.5843  10.5843
    11.8497  11.8497  11.9117  11.9117

          k = 0.0000 0.2500 0.0000 (  1840 PWs)   bands (ev):

   -16.5898 -16.5898 -16.5867 -16.5867 -16.5300 -16.5300 -16.5242 -16.5242
   -16.0805 -16.0805 -15.9660 -15.9660 -15.9519 -15.9519 -15.8995 -15.8995
   -15.8950 -15.8950 -15.8412 -15.8412  -4.0267  -4.0267   6.1037   6.1037
     7.5635   7.5635   7.6668   7.6668  10.3945  10.3945  10.7473  10.7473
    12.2200  12.2200  12.2647  12.2647

          k = 0.0000 0.3000 0.0000 (  1836 PWs)   bands (ev):

   -16.5900 -16.5900 -16.5857 -16.5857 -16.5311 -16.5311 -16.5233 -16.5233
   -16.0767 -16.0767 -15.9714 -15.9714 -15.9533 -15.9533 -15.8966 -15.8966
   -15.8927 -15.8927 -15.8421 -15.8421  -3.9151  -3.9151   5.6310   5.6310
     7.3204   7.3204   7.4091   7.4091  10.1996  10.1996  11.0744  11.0744
    12.6168  12.6168  12.6456  12.6456

          k = 0.0000 0.3500 0.0000 (  1832 PWs)   bands (ev):

   -16.5902 -16.5902 -16.5846 -16.5846 -16.5323 -16.5323 -16.5223 -16.5223
   -16.0724 -16.0724 -15.9769 -15.9769 -15.9548 -15.9548 -15.8934 -15.8934
   -15.8913 -15.8913 -15.8428 -15.8428  -3.7835  -3.7835   5.1617   5.1617
     7.0811   7.0811   7.1576   7.1576  10.0083  10.0083  11.3048  11.3048
    13.0319  13.0319  13.0460  13.0460

          k = 0.0000 0.4000 0.0000 (  1824 PWs)   bands (ev):

   -16.5904 -16.5904 -16.5835 -16.5835 -16.5334 -16.5334 -16.5212 -16.5212
   -16.0678 -16.0678 -15.9821 -15.9821 -15.9565 -15.9565 -15.8907 -15.8907
   -15.8899 -15.8899 -15.8431 -15.8431  -3.6321  -3.6321   4.6962   4.6962
     6.8504   6.8504   6.9166   6.9166   9.8268   9.8268  11.4086  11.4086
    13.4600  13.4600  13.4603  13.4603

          k = 0.0000 0.4500 0.0000 (  1820 PWs)   bands (ev):

   -16.5903 -16.5903 -16.5824 -16.5824 -16.5346 -16.5346 -16.5204 -16.5204
   -16.0626 -16.0626 -15.9873 -15.9873 -15.9583 -15.9583 -15.8911 -15.8911
   -15.8860 -15.8860 -15.8433 -15.8433  -3.4611  -3.4611   4.2349   4.2349
     6.6318   6.6318   6.6891   6.6891   9.6592   9.6592  11.3790  11.3790
    13.8847  13.8847  13.8974  13.8974

          k = 0.0000 0.5000 0.0000 (  1828 PWs)   bands (ev):

   -16.5904 -16.5904 -16.5814 -16.5814 -16.5357 -16.5357 -16.5198 -16.5198
   -16.0574 -16.0574 -15.9922 -15.9922 -15.9602 -15.9602 -15.8928 -15.8928
   -15.8821 -15.8821 -15.8434 -15.8434  -3.2709  -3.2709   3.7782   3.7782
     6.4275   6.4275   6.4771   6.4771   9.5086   9.5086  11.2410  11.2410
    14.3164  14.3164  14.3412  14.3412

          k = 0.0000 0.5500 0.0000 (  1824 PWs)   bands (ev):

   -16.5901 -16.5901 -16.5804 -16.5804 -16.5364 -16.5364 -16.5193 -16.5193
   -16.0517 -16.0517 -15.9967 -15.9967 -15.9618 -15.9618 -15.8955 -15.8955
   -15.8779 -15.8779 -15.8430 -15.8430  -3.0616  -3.0616   3.3264   3.3264
     6.2394   6.2394   6.2821   6.2821   9.3770   9.3770  11.0341  11.0341
    14.7535  14.7535  14.7892  14.7892

          k = 0.0000 0.6000 0.0000 (  1832 PWs)   bands (ev):

   -16.5901 -16.5901 -16.5799 -16.5799 -16.5369 -16.5369 -16.5192 -16.5192
   -16.0463 -16.0463 -16.0009 -16.0009 -15.9632 -15.9632 -15.8991 -15.8991
   -15.8737 -15.8737 -15.8425 -15.8425  -2.8336  -2.8336   2.8803   2.8803
     6.0687   6.0687   6.1053   6.1053   9.2663   9.2663  10.7932  10.7932
    15.1940  15.1940  15.2391  15.2391

          k = 0.0000 0.6500 0.0000 (  1828 PWs)   bands (ev):

   -16.5897 -16.5897 -16.5796 -16.5796 -16.5368 -16.5368 -16.5192 -16.5192
   -16.0409 -16.0409 -16.0045 -16.0045 -15.9642 -15.9642 -15.9035 -15.9035
   -15.8695 -15.8695 -15.8419 -15.8419  -2.5873  -2.5873   2.4404   2.4404
     5.9164   5.9164   5.9474   5.9474   9.1777   9.1777  10.5421  10.5421
    15.6355  15.6355  15.6885  15.6885

          k = 0.0000 0.7000 0.0000 (  1820 PWs)   bands (ev):

   -16.5891 -16.5891 -16.5793 -16.5793 -16.5363 -16.5363 -16.5196 -16.5196
   -16.0356 -16.0356 -16.0078 -16.0078 -15.9642 -15.9642 -15.9087 -15.9087
   -15.8653 -15.8653 -15.8415 -15.8415  -2.3232  -2.3232   2.0074   2.0074
     5.7833   5.7833   5.8092   5.8092   9.1122   9.1122  10.2959  10.2959
    16.0750  16.0750  16.1340  16.1340

          k = 0.0000 0.7500 0.0000 (  1808 PWs)   bands (ev):

   -16.5883 -16.5883 -16.5794 -16.5794 -16.5354 -16.5354 -16.5202 -16.5202
   -16.0309 -16.0309 -16.0104 -16.0104 -15.9636 -15.9636 -15.9143 -15.9143
   -15.8612 -15.8612 -15.8412 -15.8412  -2.0417  -2.0417   1.5823   1.5823
     5.6701   5.6701   5.6912   5.6912   9.0707   9.0707  10.0637  10.0637
    16.5078  16.5078  16.5707  16.5707

          k = 0.0000 0.8000 0.0000 (  1808 PWs)   bands (ev):

   -16.5877 -16.5877 -16.5800 -16.5800 -16.5341 -16.5341 -16.5212 -16.5212
   -16.0271 -16.0271 -16.0126 -16.0126 -15.9619 -15.9619 -15.9203 -15.9203
   -15.8574 -15.8574 -15.8413 -15.8413  -1.7433  -1.7433   1.1659   1.1659
     5.5773   5.5773   5.5938   5.5938   9.0538   9.0538   9.8510   9.8510
    16.9259  16.9259  16.9898  16.9898

          k = 0.0000 0.8500 0.0000 (  1800 PWs)   bands (ev):

   -16.5867 -16.5867 -16.5806 -16.5806 -16.5326 -16.5326 -16.5223 -16.5223
   -16.0241 -16.0241 -16.0144 -16.0144 -15.9590 -15.9590 -15.9264 -15.9264
   -15.8541 -15.8541 -15.8418 -15.8418  -1.4287  -1.4287   0.7591   0.7591
     5.5051   5.5051   5.5174   5.5174   9.0622   9.0622   9.6610   9.6610
    17.3158  17.3158  17.3762  17.3762

          k = 0.0000 0.9000 0.0000 (  1796 PWs)   bands (ev):

   -16.5857 -16.5857 -16.5815 -16.5815 -16.5309 -16.5309 -16.5237 -16.5237
   -16.0217 -16.0217 -16.0159 -16.0159 -15.9550 -15.9550 -15.9327 -15.9327
   -15.8510 -15.8510 -15.8428 -15.8428  -1.0985  -1.0985   0.3628   0.3628
     5.4539   5.4539   5.4620   5.4620   9.0963   9.0963   9.4958   9.4958
    17.6532  17.6532  17.7031  17.7031

          k = 0.0000 0.9500 0.0000 (  1784 PWs)   bands (ev):

   -16.5846 -16.5846 -16.5824 -16.5824 -16.5289 -16.5289 -16.5253 -16.5253
   -16.0198 -16.0198 -16.0171 -16.0171 -15.9502 -15.9502 -15.9389 -15.9389
   -15.8481 -15.8481 -15.8440 -15.8440  -0.7535  -0.7535  -0.0219  -0.0219
     5.4239   5.4239   5.4279   5.4279   9.1566   9.1566   9.3564   9.3564
    17.8980  17.8980  17.9274  17.9274

          k = 0.0000 1.0000 0.0000 (  1772 PWs)   bands (ev):

   -16.5834 -16.5834 -16.5834 -16.5834 -16.5270 -16.5270 -16.5270 -16.5270
   -16.0182 -16.0182 -16.0182 -16.0182 -15.9446 -15.9446 -15.9446 -15.9446
   -15.8458 -15.8458 -15.8458 -15.8458  -0.3943  -0.3943  -0.3943  -0.3943
     5.4152   5.4152   5.4152   5.4152   9.2433   9.2433   9.2433   9.2433
    17.9994  17.9994  17.9994  17.9994

          k = 0.0000 0.9875 0.0375 (  1784 PWs)   bands (ev):

   -16.5846 -16.5846 -16.5825 -16.5825 -16.5290 -16.5290 -16.5252 -16.5252
   -16.0205 -16.0205 -16.0161 -16.0161 -15.9466 -15.9466 -15.9431 -15.9431
   -15.8483 -15.8483 -15.8434 -15.8434  -0.4839  -0.4839  -0.3013  -0.3013
     5.3945   5.3945   5.4071   5.4071   9.2501   9.2501   9.3007   9.3007
    17.9240  17.9240  17.9620  17.9620

          k = 0.0000 0.9750 0.0750 (  1796 PWs)   bands (ev):

   -16.5858 -16.5858 -16.5816 -16.5816 -16.5308 -16.5308 -16.5234 -16.5234
   -16.0226 -16.0226 -16.0138 -16.0138 -15.9487 -15.9487 -15.9416 -15.9416
   -15.8508 -15.8508 -15.8411 -15.8411  -0.5690  -0.5690  -0.2063  -0.2063
     5.3467   5.3467   5.3720   5.3720   9.3211   9.3211   9.4188   9.4188
    17.7137  17.7137  17.8343  17.8343

          k = 0.0000 0.9625 0.1125 (  1804 PWs)   bands (ev):

   -16.5869 -16.5869 -16.5808 -16.5808 -16.5326 -16.5326 -16.5215 -16.5215
   -16.0245 -16.0245 -16.0115 -16.0115 -15.9508 -15.9508 -15.9404 -15.9404
   -15.8532 -15.8532 -15.8389 -15.8389  -0.6488  -0.6488  -0.1107  -0.1107
     5.2752   5.2752   5.3168   5.3168   9.4526   9.4526   9.5917   9.5917
    17.3555  17.3555  17.6521  17.6521

          k = 0.0000 0.9500 0.1500 (  1808 PWs)   bands (ev):

   -16.5880 -16.5880 -16.5799 -16.5799 -16.5342 -16.5342 -16.5197 -16.5197
   -16.0263 -16.0263 -16.0090 -16.0090 -15.9528 -15.9528 -15.9393 -15.9393
   -15.8555 -15.8555 -15.8368 -15.8368  -0.7224  -0.7224  -0.0163  -0.0163
     5.1840   5.1840   5.2510   5.2510   9.6385   9.6385   9.8122   9.8122
    16.8884  16.8884  17.4301  17.4301

          k =-0.0000 0.9375 0.1875 (  1813 PWs)   bands (ev):

   -16.5890 -16.5890 -16.5792 -16.5792 -16.5357 -16.5357 -16.5180 -16.5180
   -16.0279 -16.0279 -16.0067 -16.0067 -15.9548 -15.9548 -15.9385 -15.9385
   -15.8576 -15.8576 -15.8349 -15.8349  -0.7894  -0.7894   0.0749   0.0749
     5.0780   5.0780   5.1844   5.1844   9.8719   9.8719  10.0734  10.0734
    16.3585  16.3585  17.1755  17.1755

          k = 0.0000 0.9250 0.2250 (  1813 PWs)   bands (ev):

   -16.5900 -16.5900 -16.5784 -16.5784 -16.5369 -16.5369 -16.5163 -16.5163
   -16.0293 -16.0293 -16.0043 -16.0043 -15.9566 -15.9566 -15.9378 -15.9378
   -15.8594 -15.8594 -15.8332 -15.8332  -0.8493  -0.8493   0.1607   0.1607
     4.9631   4.9631   5.1249   5.1249  10.1459  10.1459  10.3689  10.3689
    15.7972  15.7972  16.8945  16.8945

          k = 0.0000 0.9125 0.2625 (  1819 PWs)   bands (ev):

   -16.5909 -16.5909 -16.5778 -16.5778 -16.5382 -16.5382 -16.5149 -16.5149
   -16.0305 -16.0305 -16.0021 -16.0021 -15.9583 -15.9583 -15.9374 -15.9374
   -15.8610 -15.8610 -15.8317 -15.8317  -0.9018  -0.9018   0.2388   0.2388
     4.8445   4.8445   5.0789   5.0789  10.4547  10.4547  10.6934  10.6934
    15.2233  15.2233  16.5932  16.5932

          k = 0.0000 0.9000 0.3000 (  1818 PWs)   bands (ev):

   -16.5917 -16.5917 -16.5772 -16.5772 -16.5391 -16.5391 -16.5136 -16.5136
   -16.0314 -16.0314 -16.0001 -16.0001 -15.9598 -15.9598 -15.9371 -15.9371
   -15.8623 -15.8623 -15.8304 -15.8304  -0.9466  -0.9466   0.3072   0.3072
     4.7268   4.7268   5.0515   5.0515  10.7930  10.7930  11.0420  11.0420
    14.6488  14.6488  16.2775  16.2775

          k = 0.0000 0.8875 0.3375 (  1817 PWs)   bands (ev):

   -16.5924 -16.5924 -16.5766 -16.5766 -16.5400 -16.5400 -16.5124 -16.5124
   -16.0322 -16.0322 -15.9983 -15.9983 -15.9610 -15.9610 -15.9371 -15.9371
   -15.8633 -15.8633 -15.8294 -15.8294  -0.9836  -0.9836   0.3639   0.3639
     4.6136   4.6136   5.0464   5.0464  11.1568  11.1568  11.4095  11.4095
    14.0828  14.0828  15.9526  15.9526

          k = 0.0000 0.8750 0.3750 (  1813 PWs)   bands (ev):

   -16.5929 -16.5929 -16.5761 -16.5761 -16.5407 -16.5407 -16.5115 -16.5115
   -16.0329 -16.0329 -15.9968 -15.9968 -15.9619 -15.9619 -15.9370 -15.9370
   -15.8641 -15.8641 -15.8286 -15.8286  -1.0126  -1.0126   0.4075   0.4075
     4.5076   4.5076   5.0660   5.0660  11.5421  11.5421  11.7875  11.7875
    13.5363  13.5363  15.6233  15.6233

          k = 0.0000 0.8625 0.4125 (  1816 PWs)   bands (ev):

   -16.5935 -16.5935 -16.5757 -16.5757 -16.5413 -16.5413 -16.5108 -16.5108
   -16.0334 -16.0334 -15.9958 -15.9958 -15.9626 -15.9626 -15.9371 -15.9371
   -15.8646 -15.8646 -15.8281 -15.8281  -1.0337  -1.0337   0.4370   0.4370
     4.4110   4.4110   5.1111   5.1111  11.9434  11.9434  12.1468  12.1468
    13.0425  13.0425  15.2935  15.2935

          k = 0.0000 0.8500 0.4500 (  1820 PWs)   bands (ev):

   -16.5938 -16.5938 -16.5753 -16.5753 -16.5419 -16.5419 -16.5104 -16.5104
   -16.0337 -16.0337 -15.9951 -15.9951 -15.9630 -15.9630 -15.9372 -15.9372
   -15.8650 -15.8650 -15.8279 -15.8279  -1.0467  -1.0467   0.4525   0.4525
     4.3257   4.3257   5.1809   5.1809  12.2013  12.2013  12.3926  12.3926
    12.8539  12.8539  14.9668  14.9668

          k = 0.0000 0.8375 0.4875 (  1824 PWs)   bands (ev):

   -16.5941 -16.5941 -16.5750 -16.5750 -16.5423 -16.5423 -16.5101 -16.5101
   -16.0339 -16.0339 -15.9949 -15.9949 -15.9633 -15.9633 -15.9372 -15.9372
   -15.8651 -15.8651 -15.8278 -15.8278  -1.0517  -1.0517   0.4544   0.4544
     4.2528   4.2528   5.2729   5.2729  11.8284  11.8284  12.8118  12.8118
    13.1685  13.1685  14.6471  14.6471

          k =-0.0000 0.8250 0.5250 (  1823 PWs)   bands (ev):

   -16.5943 -16.5943 -16.5747 -16.5747 -16.5426 -16.5426 -16.5100 -16.5100
   -16.0339 -16.0339 -15.9949 -15.9949 -15.9633 -15.9633 -15.9372 -15.9372
   -15.8649 -15.8649 -15.8279 -15.8279  -1.0488  -1.0488   0.4438   0.4438
     4.1936   4.1936   5.3826   5.3826  11.3770  11.3770  13.2490  13.2490
    13.5827  13.5827  14.3419  14.3419

          k = 0.0000 0.8125 0.5625 (  1823 PWs)   bands (ev):

   -16.5943 -16.5943 -16.5744 -16.5744 -16.5428 -16.5428 -16.5100 -16.5100
   -16.0338 -16.0338 -15.9952 -15.9952 -15.9631 -15.9631 -15.9371 -15.9371
   -15.8647 -15.8647 -15.8282 -15.8282  -1.0379  -1.0379   0.4221   0.4221
     4.1486   4.1486   5.5032   5.5032  10.9434  10.9434  13.6455  13.6455
    14.0069  14.0069  14.1035  14.1035

          k = 0.0000 0.8000 0.6000 (  1821 PWs)   bands (ev):

   -16.5942 -16.5942 -16.5742 -16.5742 -16.5428 -16.5428 -16.5102 -16.5102
   -16.0336 -16.0336 -15.9956 -15.9956 -15.9629 -15.9629 -15.9370 -15.9370
   -15.8642 -15.8642 -15.8286 -15.8286  -1.0190  -1.0190   0.3909   0.3909
     4.1187   4.1187   5.6257   5.6257  10.5479  10.5479  13.6335  13.6335
    14.2718  14.2718  14.4473  14.4473

          k = 0.0000 0.7875 0.6375 (  1815 PWs)   bands (ev):

   -16.5940 -16.5940 -16.5741 -16.5741 -16.5427 -16.5427 -16.5105 -16.5105
   -16.0333 -16.0333 -15.9962 -15.9962 -15.9625 -15.9625 -15.9368 -15.9368
   -15.8637 -15.8637 -15.8290 -15.8290  -0.9923  -0.9923   0.3516   0.3516
     4.1041   4.1041   5.7378   5.7378  10.2050  10.2050  13.3741  13.3741
    14.7096  14.7096  14.8599  14.8599

          k = 0.0000 0.7750 0.6750 (  1816 PWs)   bands (ev):

   -16.5938 -16.5938 -16.5742 -16.5742 -16.5424 -16.5424 -16.5109 -16.5109
   -16.0330 -16.0330 -15.9968 -15.9968 -15.9621 -15.9621 -15.9369 -15.9369
   -15.8633 -15.8633 -15.8294 -15.8294  -0.9577  -0.9577   0.3055   0.3055
     4.1052   4.1052   5.8243   5.8243   9.9305   9.9305  13.1014  13.1014
    15.1534  15.1534  15.2421  15.2421

          k = 0.0000 0.7625 0.7125 (  1820 PWs)   bands (ev):

   -16.5936 -16.5936 -16.5745 -16.5745 -16.5421 -16.5421 -16.5114 -16.5114
   -16.0327 -16.0327 -15.9975 -15.9975 -15.9616 -15.9616 -15.9372 -15.9372
   -15.8628 -15.8628 -15.8298 -15.8298  -0.9153  -0.9153   0.2538   0.2538
     4.1221   4.1221   5.8686   5.8686   9.7411   9.7411  12.8349  12.8349
    15.5022  15.5022  15.6135  15.6135

          k = 0.0000 0.7500 0.7500 (  1822 PWs)   bands (ev):

   -16.5933 -16.5933 -16.5749 -16.5749 -16.5416 -16.5416 -16.5119 -16.5119
   -16.0324 -16.0324 -15.9981 -15.9981 -15.9609 -15.9609 -15.9377 -15.9377
   -15.8625 -15.8625 -15.8301 -15.8301  -0.8649  -0.8649   0.1970   0.1970
     4.1548   4.1548   5.8567   5.8567   9.6505   9.6505  12.5784  12.5784
    15.7012  15.7012  15.8834  15.8834

          k = 0.0000 0.7125 0.7125 (  1818 PWs)   bands (ev):

   -16.5942 -16.5942 -16.5735 -16.5735 -16.5431 -16.5431 -16.5106 -16.5106
   -16.0332 -16.0332 -15.9972 -15.9972 -15.9627 -15.9627 -15.9356 -15.9356
   -15.8633 -15.8633 -15.8298 -15.8298  -1.0430  -1.0430   0.3876   0.3876
     4.0640   4.0640   5.9925   5.9925   9.7713   9.7713  13.3413  13.3413
    15.3165  15.3165  15.4576  15.4576

          k = 0.0000 0.6750 0.6750 (  1806 PWs)   bands (ev):

   -16.5948 -16.5948 -16.5721 -16.5721 -16.5445 -16.5445 -16.5098 -16.5098
   -16.0337 -16.0337 -15.9973 -15.9973 -15.9638 -15.9638 -15.9328 -15.9328
   -15.8636 -15.8636 -15.8302 -15.8302  -1.2488  -1.2488   0.6048   0.6048
     4.0359   4.0359   6.1434   6.1434   9.9011   9.9011  14.0937  14.0937
    14.9576  14.9576  15.0446  15.0446

          k = 0.0000 0.6375 0.6375 (  1812 PWs)   bands (ev):

   -16.5953 -16.5953 -16.5710 -16.5710 -16.5458 -16.5458 -16.5095 -16.5095
   -16.0345 -16.0345 -15.9986 -15.9986 -15.9643 -15.9643 -15.9295 -15.9295
   -15.8639 -15.8639 -15.8315 -15.8315  -1.4769  -1.4769   0.8483   0.8483
     4.0684   4.0684   6.3075   6.3075  10.0356  10.0356  14.5385  14.5385
    14.6561  14.6561  14.7324  14.7324

          k = 0.0000 0.6000 0.6000 (  1820 PWs)   bands (ev):

   -16.5957 -16.5957 -16.5703 -16.5703 -16.5466 -16.5466 -16.5097 -16.5097
   -16.0354 -16.0354 -16.0003 -16.0003 -15.9643 -15.9643 -15.9257 -15.9257
   -15.8640 -15.8640 -15.8333 -15.8333  -1.7204  -1.7204   1.1182   1.1182
     4.1569   4.1569   6.4828   6.4828  10.1689  10.1689  14.2169  14.2169
    14.3425  14.3425  14.5897  14.5897

          k = 0.0000 0.5625 0.5625 (  1820 PWs)   bands (ev):

   -16.5958 -16.5958 -16.5699 -16.5699 -16.5470 -16.5470 -16.5102 -16.5102
   -16.0370 -16.0370 -16.0016 -16.0016 -15.9640 -15.9640 -15.9214 -15.9214
   -15.8640 -15.8640 -15.8356 -15.8356  -1.9727  -1.9727   1.4143   1.4143
     4.2961   4.2961   6.6669   6.6669  10.2934  10.2934  13.8539  13.8539
    14.0798  14.0798  14.2493  14.2493

          k = 0.0000 0.5250 0.5250 (  1830 PWs)   bands (ev):

   -16.5958 -16.5958 -16.5701 -16.5701 -16.5467 -16.5467 -16.5112 -16.5112
   -16.0395 -16.0395 -16.0019 -16.0019 -15.9637 -15.9637 -15.9170 -15.9170
   -15.8643 -15.8643 -15.8383 -15.8383  -2.2273  -2.2273   1.7365   1.7365
     4.4803   4.4803   6.8571   6.8571  10.4002  10.4002  13.5048  13.5048
    13.8145  13.8145  13.9486  13.9486

          k = 0.0000 0.4875 0.4875 (  1827 PWs)   bands (ev):

   -16.5955 -16.5955 -16.5709 -16.5709 -16.5457 -16.5457 -16.5123 -16.5123
   -16.0428 -16.0428 -16.0010 -16.0010 -15.9632 -15.9632 -15.9126 -15.9126
   -15.8646 -15.8646 -15.8410 -15.8410  -2.4789  -2.4789   2.0846   2.0846
     4.7042   4.7042   7.0501   7.0501  10.4797  10.4797  13.1750  13.1750
    13.4864  13.4864  13.7810  13.7810

          k = 0.0000 0.4500 0.4500 (  1835 PWs)   bands (ev):

   -16.5952 -16.5952 -16.5724 -16.5724 -16.5443 -16.5443 -16.5137 -16.5137
   -16.0470 -16.0470 -15.9989 -15.9989 -15.9627 -15.9627 -15.9086 -15.9086
   -15.8656 -15.8656 -15.8436 -15.8436  -2.7229  -2.7229   2.4582   2.4582
     4.9630   4.9630   7.2425   7.2425  10.5239  10.5239  12.8663  12.8663
    13.1581  13.1581  13.6918  13.6918

          k = 0.0000 0.4125 0.4125 (  1849 PWs)   bands (ev):

   -16.5948 -16.5948 -16.5742 -16.5742 -16.5426 -16.5426 -16.5152 -16.5152
   -16.0516 -16.0516 -15.9960 -15.9960 -15.9622 -15.9622 -15.9053 -15.9053
   -15.8674 -15.8674 -15.8456 -15.8456  -2.9558  -2.9558   2.8570   2.8570
     5.2522   5.2522   7.4306   7.4306  10.5293  10.5293  12.5797  12.5797
    12.8491  12.8491  13.6563  13.6563

          k = 0.0000 0.3750 0.3750 (  1835 PWs)   bands (ev):

   -16.5941 -16.5941 -16.5760 -16.5760 -16.5404 -16.5404 -16.5167 -16.5167
   -16.0564 -16.0564 -15.9919 -15.9919 -15.9612 -15.9612 -15.9023 -15.9023
   -15.8701 -15.8701 -15.8463 -15.8463  -3.1747  -3.1747   3.2805   3.2805
     5.5675   5.5675   7.6106   7.6106  10.4977  10.4977  12.3161  12.3161
    12.5629  12.5629  13.6511  13.6511

          k = 0.0000 0.3375 0.3375 (  1841 PWs)   bands (ev):

   -16.5935 -16.5935 -16.5781 -16.5781 -16.5382 -16.5382 -16.5183 -16.5183
   -16.0616 -16.0616 -15.9873 -15.9873 -15.9601 -15.9601 -15.9003 -15.9003
   -15.8740 -15.8740 -15.8463 -15.8463  -3.3774  -3.3774   3.7282   3.7282
     5.9045   5.9045   7.7790   7.7790  10.4358  10.4358  12.0758  12.0758
    12.3009  12.3009  13.6387  13.6387

          k = 0.0000 0.3000 0.3000 (  1833 PWs)   bands (ev):

   -16.5928 -16.5928 -16.5801 -16.5801 -16.5359 -16.5359 -16.5197 -16.5197
   -16.0665 -16.0665 -15.9821 -15.9821 -15.9588 -15.9588 -15.8991 -15.8991
   -15.8783 -15.8783 -15.8454 -15.8454  -3.5621  -3.5621   4.1992   4.1992
     6.2581   6.2581   7.9327   7.9327  10.3513  10.3513  11.8591  11.8591
    12.0636  12.0636  13.5669  13.5669

          k = 0.0000 0.2625 0.2625 (  1839 PWs)   bands (ev):

   -16.5922 -16.5922 -16.5820 -16.5820 -16.5340 -16.5340 -16.5213 -16.5213
   -16.0713 -16.0713 -15.9768 -15.9768 -15.9574 -15.9574 -15.8987 -15.8987
   -15.8830 -15.8830 -15.8444 -15.8444  -3.7275  -3.7275   4.6924   4.6924
     6.6227   6.6227   8.0692   8.0692  10.2511  10.2511  11.6662  11.6662
    11.8511  11.8511  13.3823  13.3823

          k = 0.0000 0.2250 0.2250 (  1839 PWs)   bands (ev):

   -16.5915 -16.5915 -16.5838 -16.5838 -16.5322 -16.5322 -16.5227 -16.5227
   -16.0757 -16.0757 -15.9713 -15.9713 -15.9559 -15.9559 -15.8991 -15.8991
   -15.8877 -15.8877 -15.8431 -15.8431  -3.8726  -3.8726   5.2064   5.2064
     6.9908   6.9908   8.1872   8.1872  10.1383  10.1383  11.4968  11.4968
    11.6636  11.6636  13.0629  13.0629

          k = 0.0000 0.1875 0.1875 (  1839 PWs)   bands (ev):

   -16.5908 -16.5908 -16.5853 -16.5853 -16.5307 -16.5307 -16.5239 -16.5239
   -16.0795 -16.0795 -15.9658 -15.9658 -15.9542 -15.9542 -15.9000 -15.9000
   -15.8922 -15.8922 -15.8418 -15.8418  -3.9964  -3.9964   5.7392   5.7392
     7.3524   7.3524   8.2864   8.2864  10.0110  10.0110  11.3503  11.3503
    11.5012  11.5012  12.6372  12.6372

          k = 0.0000 0.1500 0.1500 (  1841 PWs)   bands (ev):

   -16.5902 -16.5902 -16.5867 -16.5867 -16.5294 -16.5294 -16.5249 -16.5249
   -16.0829 -16.0829 -15.9606 -15.9606 -15.9526 -15.9526 -15.9014 -15.9014
   -15.8965 -15.8965 -15.8407 -15.8407  -4.0985  -4.0985   6.2876   6.2876
     7.6941   7.6941   8.3680   8.3680   9.8592   9.8592  11.2250  11.2250
    11.3648  11.3648  12.1655  12.1655

          k = 0.0000 0.1125 0.1125 (  1835 PWs)   bands (ev):

   -16.5897 -16.5897 -16.5877 -16.5877 -16.5283 -16.5283 -16.5256 -16.5256
   -16.0856 -16.0856 -15.9558 -15.9558 -15.9510 -15.9510 -15.9029 -15.9029
   -15.9002 -15.9002 -15.8397 -15.8397  -4.1783  -4.1783   6.8470   6.8470
     7.9962   7.9962   8.4351   8.4351   9.6603   9.6603  11.1180  11.1180
    11.2560  11.2560  11.7174  11.7174

          k = 0.0000 0.0750 0.0750 (  1833 PWs)   bands (ev):

   -16.5894 -16.5894 -16.5884 -16.5884 -16.5274 -16.5274 -16.5263 -16.5263
   -16.0876 -16.0876 -15.9519 -15.9519 -15.9496 -15.9496 -15.9044 -15.9044
   -15.9031 -15.9031 -15.8389 -15.8389  -4.2355  -4.2355   7.4090   7.4090
     8.2299   8.2299   8.4956   8.4956   9.3819   9.3819  11.0237  11.0237
    11.1771  11.1771  11.3665  11.3665

          k = 0.0000 0.0375 0.0375 (  1829 PWs)   bands (ev):

   -16.5892 -16.5892 -16.5888 -16.5888 -16.5269 -16.5269 -16.5266 -16.5266
   -16.0888 -16.0888 -15.9493 -15.9493 -15.9487 -15.9487 -15.9054 -15.9054
   -15.9051 -15.9051 -15.8384 -15.8384  -4.2699  -4.2699   7.9542   7.9542
     8.3672   8.3672   8.5574   8.5574   9.0034   9.0034  10.9400  10.9400
    11.1297  11.1297  11.1693  11.1693

          k = 0.0000 0.0000 0.0000 (  1837 PWs)   bands (ev):

   -16.5892 -16.5892 -16.5892 -16.5892 -16.5268 -16.5268 -16.5268 -16.5268
   -16.0894 -16.0894 -15.9484 -15.9484 -15.9484 -15.9484 -15.9059 -15.9059
   -15.9059 -15.9059 -15.8382 -15.8382  -4.2814  -4.2814   8.2949   8.2949
     8.5329   8.5329   8.5891   8.5891   8.5891   8.5891  10.9010  10.9010
    11.1139  11.1139  11.1139  11.1139

     Writing all to output data dir ./outputs/ge.save/

     init_run     :      1.08s CPU      1.49s WALL (       1 calls)
     electrons    :     62.86s CPU     72.50s WALL (       1 calls)

     Called by init_run:
     wfcinit      :      0.00s CPU      0.00s WALL (       1 calls)
     wfcinit:atom :      0.05s CPU      0.07s WALL (      81 calls)
     wfcinit:wfcr :      5.94s CPU      9.27s WALL (      81 calls)
     potinit      :      0.24s CPU      0.34s WALL (       1 calls)
     hinit0       :      0.68s CPU      0.91s WALL (       1 calls)

     Called by electrons:
     c_bands      :     62.86s CPU     72.49s WALL (       1 calls)
     v_of_rho     :      0.01s CPU      0.01s WALL (       1 calls)
     v_h          :      0.00s CPU      0.00s WALL (       1 calls)
     v_xc         :      0.01s CPU      0.01s WALL (       1 calls)
     newd         :      0.13s CPU      0.17s WALL (       1 calls)
     PAW_pot      :      0.22s CPU      0.32s WALL (       1 calls)

     Called by c_bands:
     init_us_2    :      0.04s CPU      0.12s WALL (      81 calls)
     init_us_2:cp :      0.04s CPU      0.11s WALL (      81 calls)
     cegterg      :     55.93s CPU     78.26s WALL (      81 calls)

     Called by sum_band:

     Called by *egterg:
     cdiaghg      :      3.33s CPU      3.72s WALL (    1214 calls)
     cegterg:over :      6.38s CPU    -10.65s WALL (    1133 calls)
     cegterg:upda :      4.55s CPU      5.03s WALL (    1133 calls)
     cegterg:last :      3.81s CPU      4.18s WALL (     243 calls)
     h_psi        :     38.85s CPU     79.43s WALL (    1295 calls)
     s_psi        :      2.66s CPU      2.99s WALL (    1295 calls)
     g_psi        :      0.56s CPU      0.62s WALL (    1133 calls)

     Called by h_psi:
     h_psi:calbec :      2.67s CPU      3.14s WALL (    1295 calls)
     vloc_psi     :     33.22s CPU     72.91s WALL (    1295 calls)
     add_vuspsi   :      2.70s CPU      3.08s WALL (    1295 calls)

     General routines
     calbec       :      2.66s CPU      3.14s WALL (    1295 calls)
     fft          :      0.39s CPU      0.51s WALL (      15 calls)
     fftw         :     27.94s CPU     66.94s WALL (  111956 calls)
     davcio       :      0.06s CPU    -16.46s WALL (     162 calls)

     Parallel routines

     PAW routines
     PAW_pot      :      0.22s CPU      0.32s WALL (       1 calls)

     PWSCF        :   1m 4.61s CPU   1m15.44s WALL


   This run was terminated on:   7:22:45  19Dec2024            

=------------------------------------------------------------------------------=
   JOB DONE.
=------------------------------------------------------------------------------=
