
     Program BANDS v.7.0 starts on 19Dec2024 at  4: 3: 1 

     This program is part of the open-source Quantum ESPRESSO suite
     for quantum simulation of materials; please cite
         "P. Giannozzi et al., J. Phys.:Condens. Matter 21 395502 (2009);
         "P. Giannozzi et al., J. Phys.:Condens. Matter 29 465901 (2017);
         "P. Giannozzi et al., J. Chem. Phys. 152 154105 (2020);
          URL http://www.quantum-espresso.org", 
     in publications or presentations arising from this work. More details at
     http://www.quantum-espresso.org/quote

     Parallel version (MPI & OpenMP), running on       2 processor cores
     Number of MPI processes:                 1
     Threads/MPI process:                     2

     MPI processes distributed on     1 nodes
     153 MiB available memory on the printing compute node when the environment starts


     Reading xml data from directory:

     ./outputs/gap.save/
     file Ga.pbe-dn-kjpaw_psl.1.0.0.UPF: wavefunction(s)  4S renormalized
     file P.pbe-n-kjpaw_psl.1.0.0.UPF: wavefunction(s)  3S 3P renormalized

     IMPORTANT: XC functional enforced from input :
     Exchange-correlation= PBE
                           (   1   4   3   4   0   0   0)
     Any further DFT definition will be discarded
     Please, verify this is what you really want


     G-vector sticks info
     --------------------
     sticks:   dense  smooth     PW     G-vecs:    dense   smooth      PW
     Sum         745     745    223                13539    13539    2229

     Using Slab Decomposition


     Check: negative core charge=   -0.000003
     Reading collected, re-writing distributed wavefunctions
     high-symmetry point:  0.0000 0.0000 0.0000   x coordinate   0.0000
     high-symmetry point:  0.5000-0.2887 0.4082   x coordinate   0.7071
     high-symmetry point:  0.5000 0.0000 0.6124   x coordinate   1.0607
     high-symmetry point:  0.3750 0.2165 0.6001   x coordinate   1.3110
     high-symmetry point:  0.0000 0.0000 0.0000   x coordinate   2.0510
     high-symmetry point:  0.5000 0.2887 0.2041   x coordinate   2.6634
     high-symmetry point:  0.6250-0.0722 0.4082   x coordinate   3.0964
     high-symmetry point:  0.5000 0.0000 0.6124   x coordinate   3.3464
     high-symmetry point:  0.5000 0.2887 0.2041   x coordinate   3.8464
     high-symmetry point:  0.3750 0.2165 0.6001   x coordinate   4.2679
     high-symmetry point:  0.5000-0.2887 0.4082   x coordinate   4.8225

     Plottable bands (eV) written to file gapbands.dat.gnu
     Bands written to file gapbands.dat

 **************************************************************************

                    xk=(   0.00000,   0.00000,   0.00000  )

     point group C_3v (3m)  
     there are  3 classes
     the character table:

       E     2C3   3s_v 
A_1    1.00  1.00  1.00
A_2    1.00  1.00 -1.00
E      2.00 -1.00  0.00

     the symmetry operations in each class and the name of the first element:

     E        1
                                                                 
     2C3      2    3
                                                                 
     3s_v     4    5    6
                                                                 

     Band symmetry, C_3v (3m)   point group:

     e(  1 -  3) =     -7.77112  eV     3   --> A_1  L_1       
     e(  1 -  3) =     -7.77112  eV     3   --> E    L_3       
     e(  4 -  5) =     -7.68132  eV     2   --> E    L_3       
     e(  6 -  6) =     -5.56133  eV     1   --> A_1  L_1       
     e(  7 -  9) =      6.71818  eV     3   --> A_1  L_1       
     e(  7 -  9) =      6.71818  eV     3   --> E    L_3       
     e( 10 - 10) =      8.28610  eV     1   --> A_1  L_1       

 **************************************************************************

 **************************************************************************

                    xk=(   0.01667,  -0.00962,   0.01361  )

     point group C_s (m)    
     there are  2 classes
     the character table:

       E     s    
A'     1.00  1.00
A''    1.00 -1.00

     the symmetry operations in each class and the name of the first element:

     E        1
                                                                 
     s        2
                                                                 

     Band symmetry, C_s (m)     point group:

     e(  1 -  1) =     -7.77152  eV     1   --> A'             
     e(  2 -  3) =     -7.77097  eV     2   --> A'             
     e(  2 -  3) =     -7.77097  eV     2   --> A''            
     e(  4 -  4) =     -7.68138  eV     1   --> A'             
     e(  5 -  5) =     -7.68127  eV     1   --> A''            
     e(  6 -  6) =     -5.55666  eV     1   --> A'             
     e(  7 -  7) =      6.66306  eV     1   --> A'             
     e(  8 -  9) =      6.70422  eV     2   --> A'             
     e(  8 -  9) =      6.70422  eV     2   --> A''            
     e( 10 - 10) =      8.33958  eV     1   --> A'             

 **************************************************************************

 **************************************************************************

                    xk=(   0.03333,  -0.01925,   0.02722  )

     Band symmetry, C_s (m)     point group:

     e(  1 -  1) =     -7.77270  eV     1   --> A'             
     e(  2 -  3) =     -7.77049  eV     2   --> A'             
     e(  2 -  3) =     -7.77049  eV     2   --> A''            
     e(  4 -  4) =     -7.68155  eV     1   --> A'             
     e(  5 -  5) =     -7.68110  eV     1   --> A''            
     e(  6 -  6) =     -5.54267  eV     1   --> A'             
     e(  7 -  7) =      6.51607  eV     1   --> A'             
     e(  8 -  9) =      6.66325  eV     2   --> A'             
     e(  8 -  9) =      6.66325  eV     2   --> A''            
     e( 10 - 10) =      8.48126  eV     1   --> A'             

 **************************************************************************

 **************************************************************************

                    xk=(   0.05000,  -0.02887,   0.04082  )

     Band symmetry, C_s (m)     point group:

     e(  1 -  1) =     -7.77459  eV     1   --> A'             
     e(  2 -  3) =     -7.76968  eV     2   --> A'             
     e(  2 -  3) =     -7.76968  eV     2   --> A''            
     e(  4 -  4) =     -7.68188  eV     1   --> A'             
     e(  5 -  5) =     -7.68082  eV     1   --> A''            
     e(  6 -  6) =     -5.51940  eV     1   --> A'             
     e(  7 -  7) =      6.31103  eV     1   --> A'             
     e(  8 -  9) =      6.59782  eV     2   --> A'             
     e(  8 -  9) =      6.59782  eV     2   --> A''            
     e( 10 - 10) =      8.67603  eV     1   --> A'             

 **************************************************************************

 **************************************************************************

                    xk=(   0.06667,  -0.03849,   0.05443  )

     Band symmetry, C_s (m)     point group:

     e(  1 -  1) =     -7.77723  eV     1   --> A'             
     e(  2 -  3) =     -7.76865  eV     2   --> A'             
     e(  2 -  3) =     -7.76865  eV     2   --> A''            
     e(  4 -  4) =     -7.68233  eV     1   --> A'             
     e(  5 -  5) =     -7.68046  eV     1   --> A''            
     e(  6 -  6) =     -5.48691  eV     1   --> A'             
     e(  7 -  7) =      6.07297  eV     1   --> A'             
     e(  8 -  9) =      6.51110  eV     2   --> A'             
     e(  8 -  9) =      6.51110  eV     2   --> A''            
     e( 10 - 10) =      8.89592  eV     1   --> A'             

 **************************************************************************

 **************************************************************************

                    xk=(   0.08333,  -0.04811,   0.06804  )

     Band symmetry, C_s (m)     point group:

     e(  1 -  1) =     -7.78053  eV     1   --> A'             
     e(  2 -  3) =     -7.76736  eV     2   --> A'             
     e(  2 -  3) =     -7.76736  eV     2   --> A''            
     e(  4 -  4) =     -7.68293  eV     1   --> A'             
     e(  5 -  5) =     -7.68001  eV     1   --> A''            
     e(  6 -  6) =     -5.44529  eV     1   --> A'             
     e(  7 -  7) =      5.81645  eV     1   --> A'             
     e(  8 -  9) =      6.40727  eV     2   --> A'             
     e(  8 -  9) =      6.40727  eV     2   --> A''            
     e( 10 - 10) =      9.12140  eV     1   --> A'             

 **************************************************************************

 **************************************************************************

                    xk=(   0.10000,  -0.05774,   0.08165  )

     Band symmetry, C_s (m)     point group:

     e(  1 -  1) =     -7.78438  eV     1   --> A'             
     e(  2 -  3) =     -7.76575  eV     2   --> A'             
     e(  2 -  3) =     -7.76575  eV     2   --> A''            
     e(  4 -  4) =     -7.68365  eV     1   --> A'             
     e(  5 -  5) =     -7.67945  eV     1   --> A''            
     e(  6 -  6) =     -5.39467  eV     1   --> A'             
     e(  7 -  7) =      5.54939  eV     1   --> A'             
     e(  8 -  9) =      6.29050  eV     2   --> A'             
     e(  8 -  9) =      6.29050  eV     2   --> A''            
     e( 10 - 10) =      9.33424  eV     1   --> A'             

 **************************************************************************

 **************************************************************************

                    xk=(   0.11667,  -0.06736,   0.09526  )

     Band symmetry, C_s (m)     point group:

     e(  1 -  1) =     -7.78871  eV     1   --> A'             
     e(  2 -  3) =     -7.76387  eV     2   --> A'             
     e(  2 -  3) =     -7.76387  eV     2   --> A''            
     e(  4 -  4) =     -7.68450  eV     1   --> A'             
     e(  5 -  5) =     -7.67880  eV     1   --> A''            
     e(  6 -  6) =     -5.33518  eV     1   --> A'             
     e(  7 -  7) =      5.27619  eV     1   --> A'             
     e(  8 -  9) =      6.16424  eV     2   --> A'             
     e(  8 -  9) =      6.16424  eV     2   --> A''            
     e( 10 - 10) =      9.50628  eV     1   --> A'             

 **************************************************************************

 **************************************************************************

                    xk=(   0.13333,  -0.07698,   0.10887  )

     Band symmetry, C_s (m)     point group:

     e(  1 -  1) =     -7.79346  eV     1   --> A'             
     e(  2 -  3) =     -7.76177  eV     2   --> A'             
     e(  2 -  3) =     -7.76177  eV     2   --> A''            
     e(  4 -  4) =     -7.68548  eV     1   --> A'             
     e(  5 -  5) =     -7.67810  eV     1   --> A''            
     e(  6 -  6) =     -5.26697  eV     1   --> A'             
     e(  7 -  7) =      4.99945  eV     1   --> A'             
     e(  8 -  9) =      6.03164  eV     2   --> A'             
     e(  8 -  9) =      6.03164  eV     2   --> A''            
     e( 10 - 10) =      9.58948  eV     1   --> A'             

 **************************************************************************

 **************************************************************************

                    xk=(   0.15000,  -0.08660,   0.12247  )

     Band symmetry, C_s (m)     point group:

     e(  1 -  1) =     -7.79853  eV     1   --> A'             
     e(  2 -  3) =     -7.75943  eV     2   --> A'             
     e(  2 -  3) =     -7.75943  eV     2   --> A''            
     e(  4 -  4) =     -7.68656  eV     1   --> A'             
     e(  5 -  5) =     -7.67730  eV     1   --> A''            
     e(  6 -  6) =     -5.19023  eV     1   --> A'             
     e(  7 -  7) =      4.72083  eV     1   --> A'             
     e(  8 -  9) =      5.89536  eV     2   --> A'             
     e(  8 -  9) =      5.89536  eV     2   --> A''            
     e( 10 - 10) =      9.56457  eV     1   --> A'             

 **************************************************************************

 **************************************************************************

                    xk=(   0.16667,  -0.09623,   0.13608  )

     Band symmetry, C_s (m)     point group:

     e(  1 -  1) =     -7.80391  eV     1   --> A'             
     e(  2 -  3) =     -7.75689  eV     2   --> A'             
     e(  2 -  3) =     -7.75689  eV     2   --> A''            
     e(  4 -  4) =     -7.68783  eV     1   --> A'             
     e(  5 -  5) =     -7.67647  eV     1   --> A''            
     e(  6 -  6) =     -5.10515  eV     1   --> A'             
     e(  7 -  7) =      4.44130  eV     1   --> A'             
     e(  8 -  9) =      5.75760  eV     2   --> A'             
     e(  8 -  9) =      5.75760  eV     2   --> A''            
     e( 10 - 10) =      9.47842  eV     1   --> A'             

 **************************************************************************

 **************************************************************************

                    xk=(   0.18333,  -0.10585,   0.14969  )

     Band symmetry, C_s (m)     point group:

     e(  1 -  1) =     -7.80939  eV     1   --> A'             
     e(  2 -  3) =     -7.75416  eV     2   --> A'             
     e(  2 -  3) =     -7.75416  eV     2   --> A''            
     e(  4 -  4) =     -7.68918  eV     1   --> A'             
     e(  5 -  5) =     -7.67555  eV     1   --> A''            
     e(  6 -  6) =     -5.01194  eV     1   --> A'             
     e(  7 -  7) =      4.16185  eV     1   --> A'             
     e(  8 -  9) =      5.62016  eV     2   --> A'             
     e(  8 -  9) =      5.62016  eV     2   --> A''            
     e( 10 - 10) =      9.36977  eV     1   --> A'             

 **************************************************************************

 **************************************************************************

                    xk=(   0.20000,  -0.11547,   0.16330  )

     Band symmetry, C_s (m)     point group:

     e(  1 -  1) =     -7.81497  eV     1   --> A'             
     e(  2 -  3) =     -7.75132  eV     2   --> A'             
     e(  2 -  3) =     -7.75132  eV     2   --> A''            
     e(  4 -  4) =     -7.69066  eV     1   --> A'             
     e(  5 -  5) =     -7.67459  eV     1   --> A''            
     e(  6 -  6) =     -4.91088  eV     1   --> A'             
     e(  7 -  7) =      3.88296  eV     1   --> A'             
     e(  8 -  9) =      5.48445  eV     2   --> A'             
     e(  8 -  9) =      5.48445  eV     2   --> A''            
     e( 10 - 10) =      9.25451  eV     1   --> A'             

 **************************************************************************

 **************************************************************************

                    xk=(   0.21667,  -0.12509,   0.17691  )

     Band symmetry, C_s (m)     point group:

     e(  1 -  1) =     -7.82058  eV     1   --> A'             
     e(  2 -  3) =     -7.74835  eV     2   --> A'             
     e(  2 -  3) =     -7.74835  eV     2   --> A''            
     e(  4 -  4) =     -7.69221  eV     1   --> A'             
     e(  5 -  5) =     -7.67358  eV     1   --> A''            
     e(  6 -  6) =     -4.80223  eV     1   --> A'             
     e(  7 -  7) =      3.60515  eV     1   --> A'             
     e(  8 -  9) =      5.35179  eV     2   --> A'             
     e(  8 -  9) =      5.35179  eV     2   --> A''            
     e( 10 - 10) =      9.13943  eV     1   --> A'             

 **************************************************************************

 **************************************************************************

                    xk=(   0.23333,  -0.13472,   0.19052  )

     Band symmetry, C_s (m)     point group:

     e(  1 -  1) =     -7.82617  eV     1   --> A'             
     e(  2 -  3) =     -7.74537  eV     2   --> A'             
     e(  2 -  3) =     -7.74537  eV     2   --> A''            
     e(  4 -  4) =     -7.69391  eV     1   --> A'             
     e(  5 -  5) =     -7.67258  eV     1   --> A''            
     e(  6 -  6) =     -4.68631  eV     1   --> A'             
     e(  7 -  7) =      3.32888  eV     1   --> A'             
     e(  8 -  9) =      5.22306  eV     2   --> A'             
     e(  8 -  9) =      5.22306  eV     2   --> A''            
     e( 10 - 10) =      9.02792  eV     1   --> A'             

 **************************************************************************

 **************************************************************************

                    xk=(   0.25000,  -0.14434,   0.20412  )

     Band symmetry, C_s (m)     point group:

     e(  1 -  1) =     -7.83165  eV     1   --> A'             
     e(  2 -  3) =     -7.74230  eV     2   --> A'             
     e(  2 -  3) =     -7.74230  eV     2   --> A''            
     e(  4 -  4) =     -7.69559  eV     1   --> A'             
     e(  5 -  5) =     -7.67155  eV     1   --> A''            
     e(  6 -  6) =     -4.56351  eV     1   --> A'             
     e(  7 -  7) =      3.05468  eV     1   --> A'             
     e(  8 -  9) =      5.09925  eV     2   --> A'             
     e(  8 -  9) =      5.09925  eV     2   --> A''            
     e( 10 - 10) =      8.92213  eV     1   --> A'             

 **************************************************************************

 **************************************************************************

                    xk=(   0.26667,  -0.15396,   0.21773  )

     Band symmetry, C_s (m)     point group:

     e(  1 -  1) =     -7.83700  eV     1   --> A'             
     e(  2 -  3) =     -7.73921  eV     2   --> A'             
     e(  2 -  3) =     -7.73921  eV     2   --> A''            
     e(  4 -  4) =     -7.69730  eV     1   --> A'             
     e(  5 -  5) =     -7.67053  eV     1   --> A''            
     e(  6 -  6) =     -4.43425  eV     1   --> A'             
     e(  7 -  7) =      2.78306  eV     1   --> A'             
     e(  8 -  9) =      4.98102  eV     2   --> A'             
     e(  8 -  9) =      4.98102  eV     2   --> A''            
     e( 10 - 10) =      8.82337  eV     1   --> A'             

 **************************************************************************

 **************************************************************************

                    xk=(   0.28333,  -0.16358,   0.23134  )

     Band symmetry, C_s (m)     point group:

     e(  1 -  1) =     -7.84215  eV     1   --> A'             
     e(  2 -  3) =     -7.73612  eV     2   --> A'             
     e(  2 -  3) =     -7.73612  eV     2   --> A''            
     e(  4 -  4) =     -7.69901  eV     1   --> A'             
     e(  5 -  5) =     -7.66951  eV     1   --> A''            
     e(  6 -  6) =     -4.29907  eV     1   --> A'             
     e(  7 -  7) =      2.51464  eV     1   --> A'             
     e(  8 -  9) =      4.86898  eV     2   --> A'             
     e(  8 -  9) =      4.86898  eV     2   --> A''            
     e( 10 - 10) =      8.73264  eV     1   --> A'             

 **************************************************************************

 **************************************************************************

                    xk=(   0.30000,  -0.17321,   0.24495  )

     Band symmetry, C_s (m)     point group:

     e(  1 -  1) =     -7.84703  eV     1   --> A'             
     e(  2 -  3) =     -7.73306  eV     2   --> A'             
     e(  2 -  3) =     -7.73306  eV     2   --> A''            
     e(  4 -  4) =     -7.70071  eV     1   --> A'             
     e(  5 -  5) =     -7.66850  eV     1   --> A''            
     e(  6 -  6) =     -4.15859  eV     1   --> A'             
     e(  7 -  7) =      2.25016  eV     1   --> A'             
     e(  8 -  9) =      4.76364  eV     2   --> A'             
     e(  8 -  9) =      4.76364  eV     2   --> A''            
     e( 10 - 10) =      8.65071  eV     1   --> A'             

 **************************************************************************

 **************************************************************************

                    xk=(   0.31667,  -0.18283,   0.25856  )

     Band symmetry, C_s (m)     point group:

     e(  1 -  1) =     -7.85170  eV     1   --> A'             
     e(  2 -  3) =     -7.73013  eV     2   --> A'             
     e(  2 -  3) =     -7.73013  eV     2   --> A''            
     e(  4 -  4) =     -7.70234  eV     1   --> A'             
     e(  5 -  5) =     -7.66754  eV     1   --> A''            
     e(  6 -  6) =     -4.01359  eV     1   --> A'             
     e(  7 -  7) =      1.99044  eV     1   --> A'             
     e(  8 -  9) =      4.66537  eV     2   --> A'             
     e(  8 -  9) =      4.66537  eV     2   --> A''            
     e( 10 - 10) =      8.57806  eV     1   --> A'             

 **************************************************************************

 **************************************************************************

                    xk=(   0.33333,  -0.19245,   0.27217  )

     Band symmetry, C_s (m)     point group:

     e(  1 -  1) =     -7.85606  eV     1   --> A'             
     e(  2 -  3) =     -7.72732  eV     2   --> A'             
     e(  2 -  3) =     -7.72732  eV     2   --> A''            
     e(  4 -  4) =     -7.70398  eV     1   --> A'             
     e(  5 -  5) =     -7.66663  eV     1   --> A''            
     e(  6 -  6) =     -3.86504  eV     1   --> A'             
     e(  7 -  7) =      1.73659  eV     1   --> A'             
     e(  8 -  9) =      4.57458  eV     2   --> A'             
     e(  8 -  9) =      4.57458  eV     2   --> A''            
     e( 10 - 10) =      8.51515  eV     1   --> A'             

 **************************************************************************

 **************************************************************************

                    xk=(   0.35000,  -0.20207,   0.28577  )

     Band symmetry, C_s (m)     point group:

     e(  1 -  1) =     -7.86009  eV     1   --> A'             
     e(  2 -  3) =     -7.72465  eV     2   --> A'             
     e(  2 -  3) =     -7.72465  eV     2   --> A''            
     e(  4 -  4) =     -7.70552  eV     1   --> A'             
     e(  5 -  5) =     -7.66577  eV     1   --> A''            
     e(  6 -  6) =     -3.71416  eV     1   --> A'             
     e(  7 -  7) =      1.48994  eV     1   --> A'             
     e(  8 -  9) =      4.49159  eV     2   --> A'             
     e(  8 -  9) =      4.49159  eV     2   --> A''            
     e( 10 - 10) =      8.46245  eV     1   --> A'             

 **************************************************************************

 **************************************************************************

                    xk=(   0.36667,  -0.21170,   0.29938  )

     Band symmetry, C_s (m)     point group:

     e(  1 -  1) =     -7.86377  eV     1   --> A'             
     e(  2 -  3) =     -7.72218  eV     2   --> A'             
     e(  2 -  3) =     -7.72218  eV     2   --> A''            
     e(  4 -  4) =     -7.70695  eV     1   --> A'             
     e(  5 -  5) =     -7.66497  eV     1   --> A''            
     e(  6 -  6) =     -3.56254  eV     1   --> A'             
     e(  7 -  7) =      1.25219  eV     1   --> A'             
     e(  8 -  9) =      4.41668  eV     2   --> A'             
     e(  8 -  9) =      4.41668  eV     2   --> A''            
     e( 10 - 10) =      8.42022  eV     1   --> A'             

 **************************************************************************

 **************************************************************************

                    xk=(   0.38333,  -0.22132,   0.31299  )

     Band symmetry, C_s (m)     point group:

     e(  1 -  1) =     -7.86708  eV     1   --> A'             
     e(  2 -  3) =     -7.71993  eV     2   --> A'             
     e(  2 -  3) =     -7.71993  eV     2   --> A''            
     e(  4 -  4) =     -7.70827  eV     1   --> A'             
     e(  5 -  5) =     -7.66425  eV     1   --> A''            
     e(  6 -  6) =     -3.41222  eV     1   --> A'             
     e(  7 -  7) =      1.02552  eV     1   --> A'             
     e(  8 -  9) =      4.35006  eV     2   --> A'             
     e(  8 -  9) =      4.35006  eV     2   --> A''            
     e( 10 - 10) =      8.38871  eV     1   --> A'             

 **************************************************************************

 **************************************************************************

                    xk=(   0.40000,  -0.23094,   0.32660  )

     Band symmetry, C_s (m)     point group:

     e(  1 -  1) =     -7.86999  eV     1   --> A'             
     e(  2 -  3) =     -7.71793  eV     2   --> A'             
     e(  2 -  3) =     -7.71793  eV     2   --> A''            
     e(  4 -  4) =     -7.70946  eV     1   --> A'             
     e(  5 -  5) =     -7.66360  eV     1   --> A''            
     e(  6 -  6) =     -3.26589  eV     1   --> A'             
     e(  7 -  7) =      0.81272  eV     1   --> A'             
     e(  8 -  9) =      4.29194  eV     2   --> A'             
     e(  8 -  9) =      4.29194  eV     2   --> A''            
     e( 10 - 10) =      8.36811  eV     1   --> A'             

 **************************************************************************

 **************************************************************************

                    xk=(   0.41667,  -0.24056,   0.34021  )

     Band symmetry, C_s (m)     point group:

     e(  1 -  1) =     -7.87247  eV     1   --> A'             
     e(  2 -  3) =     -7.71616  eV     2   --> A'             
     e(  2 -  3) =     -7.71616  eV     2   --> A''            
     e(  4 -  4) =     -7.71044  eV     1   --> A'             
     e(  5 -  5) =     -7.66304  eV     1   --> A''            
     e(  6 -  6) =     -3.12705  eV     1   --> A'             
     e(  7 -  7) =      0.61743  eV     1   --> A'             
     e(  8 -  9) =      4.24251  eV     2   --> A'             
     e(  8 -  9) =      4.24251  eV     2   --> A''            
     e( 10 - 10) =      8.35858  eV     1   --> A'             

 **************************************************************************

 **************************************************************************

                    xk=(   0.43333,  -0.25019,   0.35382  )

     Band symmetry, C_s (m)     point group:

     e(  1 -  1) =     -7.87452  eV     1   --> A'             
     e(  2 -  3) =     -7.71472  eV     2   --> A'             
     e(  2 -  3) =     -7.71472  eV     2   --> A''            
     e(  4 -  4) =     -7.71133  eV     1   --> A'             
     e(  5 -  5) =     -7.66258  eV     1   --> A''            
     e(  6 -  6) =     -3.00022  eV     1   --> A'             
     e(  7 -  7) =      0.44424  eV     1   --> A'             
     e(  8 -  9) =      4.20188  eV     2   --> A'             
     e(  8 -  9) =      4.20188  eV     2   --> A''            
     e( 10 - 10) =      8.35992  eV     1   --> A'             

 **************************************************************************

 **************************************************************************

                    xk=(   0.45000,  -0.25981,   0.36742  )

     Band symmetry, C_s (m)     point group:

     e(  1 -  1) =     -7.87612  eV     1   --> A'             
     e(  2 -  3) =     -7.71355  eV     2   --> A'             
     e(  2 -  3) =     -7.71355  eV     2   --> A''            
     e(  4 -  4) =     -7.71201  eV     1   --> A'             
     e(  5 -  5) =     -7.66217  eV     1   --> A''            
     e(  6 -  6) =     -2.89101  eV     1   --> A'             
     e(  7 -  7) =      0.29889  eV     1   --> A'             
     e(  8 -  9) =      4.17017  eV     2   --> A'             
     e(  8 -  9) =      4.17017  eV     2   --> A''            
     e( 10 - 10) =      8.37190  eV     1   --> A'             

 **************************************************************************

 **************************************************************************

                    xk=(   0.46667,  -0.26943,   0.38103  )

     Band symmetry, C_s (m)     point group:

     e(  1 -  1) =     -7.87728  eV     1   --> A'             
     e(  2 -  3) =     -7.71271  eV     2   --> A'             
     e(  2 -  3) =     -7.71271  eV     2   --> A''            
     e(  4 -  4) =     -7.71251  eV     1   --> A'             
     e(  5 -  5) =     -7.66191  eV     1   --> A''            
     e(  6 -  6) =     -2.80592  eV     1   --> A'             
     e(  7 -  7) =      0.18791  eV     1   --> A'             
     e(  8 -  9) =      4.14746  eV     2   --> A'             
     e(  8 -  9) =      4.14746  eV     2   --> A''            
     e( 10 - 10) =      8.39325  eV     1   --> A'             

 **************************************************************************

 **************************************************************************

                    xk=(   0.48333,  -0.27905,   0.39464  )

     Band symmetry, C_s (m)     point group:

     e(  1 -  1) =     -7.87800  eV     1   --> A'             
     e(  2 -  2) =     -7.71282  eV     1   --> A'             
     e(  3 -  4) =     -7.71218  eV     2   --> A'             
     e(  3 -  4) =     -7.71218  eV     2   --> A''            
     e(  5 -  5) =     -7.66176  eV     1   --> A''            
     e(  6 -  6) =     -2.75146  eV     1   --> A'             
     e(  7 -  7) =      0.11789  eV     1   --> A'             
     e(  8 -  9) =      4.13382  eV     2   --> A'             
     e(  8 -  9) =      4.13382  eV     2   --> A''            
     e( 10 - 10) =      8.41945  eV     1   --> A'             

 **************************************************************************

 **************************************************************************

                    xk=(   0.50000,  -0.28868,   0.40825  )

     Band symmetry, C_s (m)     point group:

     e(  1 -  1) =     -7.87826  eV     1   --> A'             
     e(  2 -  2) =     -7.71295  eV     1   --> A'             
     e(  3 -  4) =     -7.71202  eV     2   --> A'             
     e(  3 -  4) =     -7.71202  eV     2   --> A''            
     e(  5 -  5) =     -7.66170  eV     1   --> A''            
     e(  6 -  6) =     -2.73267  eV     1   --> A'             
     e(  7 -  7) =      0.09390  eV     1   --> A'             
     e(  8 -  9) =      4.12926  eV     2   --> A'             
     e(  8 -  9) =      4.12926  eV     2   --> A''            
     e( 10 - 10) =      8.43447  eV     1   --> A'             

 **************************************************************************

 **************************************************************************

                    xk=(   0.50000,  -0.27905,   0.41505  )

     point group C_1 (1)    
     there are  1 classes
     the character table:

       E    
A      1.00

     the symmetry operations in each class and the name of the first element:

     E        1
                                                                 

     Band symmetry, C_1 (1)     point group:

     e(  1 -  1) =     -7.87815  eV     1   --> A              
     e(  2 -  2) =     -7.71306  eV     1   --> A              
     e(  3 -  3) =     -7.71206  eV     1   --> A              
     e(  4 -  4) =     -7.71184  eV     1   --> A              
     e(  5 -  5) =     -7.66172  eV     1   --> A              
     e(  6 -  6) =     -2.73243  eV     1   --> A              
     e(  7 -  7) =      0.09438  eV     1   --> A              
     e(  8 -  8) =      4.12645  eV     1   --> A              
     e(  9 -  9) =      4.12687  eV     1   --> A              
     e( 10 - 10) =      8.44017  eV     1   --> A              

 **************************************************************************

 **************************************************************************

                    xk=(   0.50000,  -0.26943,   0.42186  )

     Band symmetry, C_1 (1)     point group:

     e(  1 -  1) =     -7.87802  eV     1   --> A              
     e(  2 -  2) =     -7.71334  eV     1   --> A              
     e(  3 -  3) =     -7.71224  eV     1   --> A              
     e(  4 -  4) =     -7.71147  eV     1   --> A              
     e(  5 -  5) =     -7.66178  eV     1   --> A              
     e(  6 -  6) =     -2.73178  eV     1   --> A              
     e(  7 -  7) =      0.09578  eV     1   --> A              
     e(  8 -  8) =      4.11807  eV     1   --> A              
     e(  9 -  9) =      4.11972  eV     1   --> A              
     e( 10 - 10) =      8.45663  eV     1   --> A              

 **************************************************************************

 **************************************************************************

                    xk=(   0.50000,  -0.25981,   0.42866  )

     Band symmetry, C_1 (1)     point group:

     e(  1 -  1) =     -7.87782  eV     1   --> A              
     e(  2 -  2) =     -7.71365  eV     1   --> A              
     e(  3 -  3) =     -7.71255  eV     1   --> A              
     e(  4 -  4) =     -7.71103  eV     1   --> A              
     e(  5 -  5) =     -7.66191  eV     1   --> A              
     e(  6 -  6) =     -2.73070  eV     1   --> A              
     e(  7 -  7) =      0.09810  eV     1   --> A              
     e(  8 -  8) =      4.10428  eV     1   --> A              
     e(  9 -  9) =      4.10797  eV     1   --> A              
     e( 10 - 10) =      8.48390  eV     1   --> A              

 **************************************************************************

 **************************************************************************

                    xk=(   0.50000,  -0.25019,   0.43546  )

     Band symmetry, C_1 (1)     point group:

     e(  1 -  1) =     -7.87754  eV     1   --> A              
     e(  2 -  2) =     -7.71396  eV     1   --> A              
     e(  3 -  3) =     -7.71298  eV     1   --> A              
     e(  4 -  4) =     -7.71055  eV     1   --> A              
     e(  5 -  5) =     -7.66207  eV     1   --> A              
     e(  6 -  6) =     -2.72921  eV     1   --> A              
     e(  7 -  7) =      0.10133  eV     1   --> A              
     e(  8 -  8) =      4.08535  eV     1   --> A              
     e(  9 -  9) =      4.09186  eV     1   --> A              
     e( 10 - 10) =      8.52173  eV     1   --> A              

 **************************************************************************

 **************************************************************************

                    xk=(   0.50000,  -0.24056,   0.44227  )

     Band symmetry, C_1 (1)     point group:

     e(  1 -  1) =     -7.87718  eV     1   --> A              
     e(  2 -  2) =     -7.71424  eV     1   --> A              
     e(  3 -  3) =     -7.71350  eV     1   --> A              
     e(  4 -  4) =     -7.71002  eV     1   --> A              
     e(  5 -  5) =     -7.66227  eV     1   --> A              
     e(  6 -  6) =     -2.72731  eV     1   --> A              
     e(  7 -  7) =      0.10544  eV     1   --> A              
     e(  8 -  8) =      4.06164  eV     1   --> A              
     e(  9 -  9) =      4.07171  eV     1   --> A              
     e( 10 - 10) =      8.56985  eV     1   --> A              

 **************************************************************************

 **************************************************************************

                    xk=(   0.50000,  -0.23094,   0.44907  )

     Band symmetry, C_1 (1)     point group:

     e(  1 -  1) =     -7.87674  eV     1   --> A              
     e(  2 -  2) =     -7.71452  eV     1   --> A              
     e(  3 -  3) =     -7.71413  eV     1   --> A              
     e(  4 -  4) =     -7.70948  eV     1   --> A              
     e(  5 -  5) =     -7.66251  eV     1   --> A              
     e(  6 -  6) =     -2.72504  eV     1   --> A              
     e(  7 -  7) =      0.11040  eV     1   --> A              
     e(  8 -  8) =      4.03356  eV     1   --> A              
     e(  9 -  9) =      4.04791  eV     1   --> A              
     e( 10 - 10) =      8.62781  eV     1   --> A              

 **************************************************************************

 **************************************************************************

                    xk=(   0.50000,  -0.22132,   0.45588  )

     Band symmetry, C_1 (1)     point group:

     e(  1 -  1) =     -7.87623  eV     1   --> A              
     e(  2 -  3) =     -7.71486  eV     2   -->   2 A              
     e(  4 -  4) =     -7.70889  eV     1   --> A              
     e(  5 -  5) =     -7.66280  eV     1   --> A              
     e(  6 -  6) =     -2.72240  eV     1   --> A              
     e(  7 -  7) =      0.11617  eV     1   --> A              
     e(  8 -  8) =      4.00161  eV     1   --> A              
     e(  9 -  9) =      4.02087  eV     1   --> A              
     e( 10 - 10) =      8.69523  eV     1   --> A              

 **************************************************************************

 **************************************************************************

                    xk=(   0.50000,  -0.21170,   0.46268  )

     Band symmetry, C_1 (1)     point group:

     e(  1 -  1) =     -7.87564  eV     1   --> A              
     e(  2 -  2) =     -7.71569  eV     1   --> A              
     e(  3 -  3) =     -7.71500  eV     1   --> A              
     e(  4 -  4) =     -7.70827  eV     1   --> A              
     e(  5 -  5) =     -7.66312  eV     1   --> A              
     e(  6 -  6) =     -2.71943  eV     1   --> A              
     e(  7 -  7) =      0.12270  eV     1   --> A              
     e(  8 -  8) =      3.96630  eV     1   --> A              
     e(  9 -  9) =      3.99107  eV     1   --> A              
     e( 10 - 10) =      8.77162  eV     1   --> A              

 **************************************************************************

 **************************************************************************

                    xk=(   0.50000,  -0.20207,   0.46949  )

     Band symmetry, C_1 (1)     point group:

     e(  1 -  1) =     -7.87498  eV     1   --> A              
     e(  2 -  2) =     -7.71660  eV     1   --> A              
     e(  3 -  3) =     -7.71521  eV     1   --> A              
     e(  4 -  4) =     -7.70762  eV     1   --> A              
     e(  5 -  5) =     -7.66346  eV     1   --> A              
     e(  6 -  6) =     -2.71615  eV     1   --> A              
     e(  7 -  7) =      0.12996  eV     1   --> A              
     e(  8 -  8) =      3.92816  eV     1   --> A              
     e(  9 -  9) =      3.95899  eV     1   --> A              
     e( 10 - 10) =      8.85650  eV     1   --> A              

 **************************************************************************

 **************************************************************************

                    xk=(   0.50000,  -0.19245,   0.47629  )

     Band symmetry, C_1 (1)     point group:

     e(  1 -  1) =     -7.87427  eV     1   --> A              
     e(  2 -  2) =     -7.71759  eV     1   --> A              
     e(  3 -  3) =     -7.71540  eV     1   --> A              
     e(  4 -  4) =     -7.70695  eV     1   --> A              
     e(  5 -  5) =     -7.66386  eV     1   --> A              
     e(  6 -  6) =     -2.71261  eV     1   --> A              
     e(  7 -  7) =      0.13786  eV     1   --> A              
     e(  8 -  8) =      3.88774  eV     1   --> A              
     e(  9 -  9) =      3.92509  eV     1   --> A              
     e( 10 - 10) =      8.94934  eV     1   --> A              

 **************************************************************************

 **************************************************************************

                    xk=(   0.50000,  -0.18283,   0.48309  )

     Band symmetry, C_1 (1)     point group:

     e(  1 -  1) =     -7.87348  eV     1   --> A              
     e(  2 -  2) =     -7.71865  eV     1   --> A              
     e(  3 -  3) =     -7.71558  eV     1   --> A              
     e(  4 -  4) =     -7.70624  eV     1   --> A              
     e(  5 -  5) =     -7.66430  eV     1   --> A              
     e(  6 -  6) =     -2.70883  eV     1   --> A              
     e(  7 -  7) =      0.14635  eV     1   --> A              
     e(  8 -  8) =      3.84558  eV     1   --> A              
     e(  9 -  9) =      3.88987  eV     1   --> A              
     e( 10 - 10) =      9.04976  eV     1   --> A              

 **************************************************************************

 **************************************************************************

                    xk=(   0.50000,  -0.17321,   0.48990  )

     Band symmetry, C_1 (1)     point group:

     e(  1 -  1) =     -7.87268  eV     1   --> A              
     e(  2 -  2) =     -7.71979  eV     1   --> A              
     e(  3 -  3) =     -7.71575  eV     1   --> A              
     e(  4 -  4) =     -7.70552  eV     1   --> A              
     e(  5 -  5) =     -7.66477  eV     1   --> A              
     e(  6 -  6) =     -2.70487  eV     1   --> A              
     e(  7 -  7) =      0.15534  eV     1   --> A              
     e(  8 -  8) =      3.80219  eV     1   --> A              
     e(  9 -  9) =      3.85377  eV     1   --> A              
     e( 10 - 10) =      9.15704  eV     1   --> A              

 **************************************************************************

 **************************************************************************

                    xk=(   0.50000,  -0.16358,   0.49670  )

     Band symmetry, C_1 (1)     point group:

     e(  1 -  1) =     -7.87182  eV     1   --> A              
     e(  2 -  2) =     -7.72097  eV     1   --> A              
     e(  3 -  3) =     -7.71590  eV     1   --> A              
     e(  4 -  4) =     -7.70478  eV     1   --> A              
     e(  5 -  5) =     -7.66527  eV     1   --> A              
     e(  6 -  6) =     -2.70076  eV     1   --> A              
     e(  7 -  7) =      0.16477  eV     1   --> A              
     e(  8 -  8) =      3.75810  eV     1   --> A              
     e(  9 -  9) =      3.81726  eV     1   --> A              
     e( 10 - 10) =      9.27085  eV     1   --> A              

 **************************************************************************

 **************************************************************************

                    xk=(   0.50000,  -0.15396,   0.50351  )

     Band symmetry, C_1 (1)     point group:

     e(  1 -  1) =     -7.87089  eV     1   --> A              
     e(  2 -  2) =     -7.72217  eV     1   --> A              
     e(  3 -  3) =     -7.71602  eV     1   --> A              
     e(  4 -  4) =     -7.70402  eV     1   --> A              
     e(  5 -  5) =     -7.66580  eV     1   --> A              
     e(  6 -  6) =     -2.69653  eV     1   --> A              
     e(  7 -  7) =      0.17453  eV     1   --> A              
     e(  8 -  8) =      3.71380  eV     1   --> A              
     e(  9 -  9) =      3.78074  eV     1   --> A              
     e( 10 - 10) =      9.39082  eV     1   --> A              

 **************************************************************************

 **************************************************************************

                    xk=(   0.50000,  -0.14434,   0.51031  )

     Band symmetry, C_1 (1)     point group:

     e(  1 -  1) =     -7.86999  eV     1   --> A              
     e(  2 -  2) =     -7.72342  eV     1   --> A              
     e(  3 -  3) =     -7.71615  eV     1   --> A              
     e(  4 -  4) =     -7.70324  eV     1   --> A              
     e(  5 -  5) =     -7.66635  eV     1   --> A              
     e(  6 -  6) =     -2.69225  eV     1   --> A              
     e(  7 -  7) =      0.18453  eV     1   --> A              
     e(  8 -  8) =      3.66973  eV     1   --> A              
     e(  9 -  9) =      3.74460  eV     1   --> A              
     e( 10 - 10) =      9.51624  eV     1   --> A              

 **************************************************************************

 **************************************************************************

                    xk=(   0.50000,  -0.13472,   0.51711  )

     Band symmetry, C_1 (1)     point group:

     e(  1 -  1) =     -7.86906  eV     1   --> A              
     e(  2 -  2) =     -7.72468  eV     1   --> A              
     e(  3 -  3) =     -7.71626  eV     1   --> A              
     e(  4 -  4) =     -7.70246  eV     1   --> A              
     e(  5 -  5) =     -7.66692  eV     1   --> A              
     e(  6 -  6) =     -2.68796  eV     1   --> A              
     e(  7 -  7) =      0.19467  eV     1   --> A              
     e(  8 -  8) =      3.62636  eV     1   --> A              
     e(  9 -  9) =      3.70920  eV     1   --> A              
     e( 10 - 10) =      9.64676  eV     1   --> A              

 **************************************************************************

 **************************************************************************

                    xk=(   0.50000,  -0.12509,   0.52392  )

     Band symmetry, C_1 (1)     point group:

     e(  1 -  1) =     -7.86814  eV     1   --> A              
     e(  2 -  2) =     -7.72595  eV     1   --> A              
     e(  3 -  3) =     -7.71637  eV     1   --> A              
     e(  4 -  4) =     -7.70168  eV     1   --> A              
     e(  5 -  5) =     -7.66752  eV     1   --> A              
     e(  6 -  6) =     -2.68371  eV     1   --> A              
     e(  7 -  7) =      0.20484  eV     1   --> A              
     e(  8 -  8) =      3.58407  eV     1   --> A              
     e(  9 -  9) =      3.67487  eV     1   --> A              
     e( 10 - 10) =      9.78188  eV     1   --> A              

 **************************************************************************

 **************************************************************************

                    xk=(   0.50000,  -0.11547,   0.53072  )

     Band symmetry, C_1 (1)     point group:

     e(  1 -  1) =     -7.86722  eV     1   --> A              
     e(  2 -  2) =     -7.72720  eV     1   --> A              
     e(  3 -  3) =     -7.71646  eV     1   --> A              
     e(  4 -  4) =     -7.70090  eV     1   --> A              
     e(  5 -  5) =     -7.66812  eV     1   --> A              
     e(  6 -  6) =     -2.67953  eV     1   --> A              
     e(  7 -  7) =      0.21493  eV     1   --> A              
     e(  8 -  8) =      3.54327  eV     1   --> A              
     e(  9 -  9) =      3.64194  eV     1   --> A              
     e( 10 - 10) =      9.92121  eV     1   --> A              

 **************************************************************************

 **************************************************************************

                    xk=(   0.50000,  -0.10585,   0.53753  )

     Band symmetry, C_1 (1)     point group:

     e(  1 -  1) =     -7.86630  eV     1   --> A              
     e(  2 -  2) =     -7.72841  eV     1   --> A              
     e(  3 -  3) =     -7.71654  eV     1   --> A              
     e(  4 -  4) =     -7.70011  eV     1   --> A              
     e(  5 -  5) =     -7.66873  eV     1   --> A              
     e(  6 -  6) =     -2.67548  eV     1   --> A              
     e(  7 -  7) =      0.22481  eV     1   --> A              
     e(  8 -  8) =      3.50433  eV     1   --> A              
     e(  9 -  9) =      3.61067  eV     1   --> A              
     e( 10 - 10) =     10.06419  eV     1   --> A              

 **************************************************************************

 **************************************************************************

                    xk=(   0.50000,  -0.09623,   0.54433  )

     Band symmetry, C_1 (1)     point group:

     e(  1 -  1) =     -7.86541  eV     1   --> A              
     e(  2 -  2) =     -7.72959  eV     1   --> A              
     e(  3 -  3) =     -7.71661  eV     1   --> A              
     e(  4 -  4) =     -7.69934  eV     1   --> A              
     e(  5 -  5) =     -7.66933  eV     1   --> A              
     e(  6 -  6) =     -2.67160  eV     1   --> A              
     e(  7 -  7) =      0.23437  eV     1   --> A              
     e(  8 -  8) =      3.46757  eV     1   --> A              
     e(  9 -  9) =      3.58131  eV     1   --> A              
     e( 10 - 10) =     10.21024  eV     1   --> A              

 **************************************************************************

 **************************************************************************

                    xk=(   0.50000,  -0.08660,   0.55114  )

     Band symmetry, C_1 (1)     point group:

     e(  1 -  1) =     -7.86456  eV     1   --> A              
     e(  2 -  2) =     -7.73070  eV     1   --> A              
     e(  3 -  3) =     -7.71667  eV     1   --> A              
     e(  4 -  4) =     -7.69859  eV     1   --> A              
     e(  5 -  5) =     -7.66993  eV     1   --> A              
     e(  6 -  6) =     -2.66794  eV     1   --> A              
     e(  7 -  7) =      0.24349  eV     1   --> A              
     e(  8 -  8) =      3.43331  eV     1   --> A              
     e(  9 -  9) =      3.55409  eV     1   --> A              
     e( 10 - 10) =     10.35867  eV     1   --> A              

 **************************************************************************

 **************************************************************************

                    xk=(   0.50000,  -0.07698,   0.55794  )

     Band symmetry, C_1 (1)     point group:

     e(  1 -  1) =     -7.86376  eV     1   --> A              
     e(  2 -  2) =     -7.73176  eV     1   --> A              
     e(  3 -  3) =     -7.71671  eV     1   --> A              
     e(  4 -  4) =     -7.69786  eV     1   --> A              
     e(  5 -  5) =     -7.67051  eV     1   --> A              
     e(  6 -  6) =     -2.66454  eV     1   --> A              
     e(  7 -  7) =      0.25204  eV     1   --> A              
     e(  8 -  8) =      3.40185  eV     1   --> A              
     e(  9 -  9) =      3.52922  eV     1   --> A              
     e( 10 - 10) =     10.50863  eV     1   --> A              

 **************************************************************************

 **************************************************************************

                    xk=(   0.50000,  -0.06736,   0.56474  )

     Band symmetry, C_1 (1)     point group:

     e(  1 -  1) =     -7.86302  eV     1   --> A              
     e(  2 -  2) =     -7.73273  eV     1   --> A              
     e(  3 -  3) =     -7.71676  eV     1   --> A              
     e(  4 -  4) =     -7.69718  eV     1   --> A              
     e(  5 -  5) =     -7.67107  eV     1   --> A              
     e(  6 -  6) =     -2.66143  eV     1   --> A              
     e(  7 -  7) =      0.25992  eV     1   --> A              
     e(  8 -  8) =      3.37343  eV     1   --> A              
     e(  9 -  9) =      3.50686  eV     1   --> A              
     e( 10 - 10) =     10.65900  eV     1   --> A              

 **************************************************************************

 **************************************************************************

                    xk=(   0.50000,  -0.05774,   0.57155  )

     Band symmetry, C_1 (1)     point group:

     e(  1 -  1) =     -7.86233  eV     1   --> A              
     e(  2 -  2) =     -7.73359  eV     1   --> A              
     e(  3 -  3) =     -7.71681  eV     1   --> A              
     e(  4 -  4) =     -7.69656  eV     1   --> A              
     e(  5 -  5) =     -7.67157  eV     1   --> A              
     e(  6 -  6) =     -2.65866  eV     1   --> A              
     e(  7 -  7) =      0.26700  eV     1   --> A              
     e(  8 -  8) =      3.34830  eV     1   --> A              
     e(  9 -  9) =      3.48717  eV     1   --> A              
     e( 10 - 10) =     10.80828  eV     1   --> A              

 **************************************************************************

 **************************************************************************

                    xk=(   0.50000,  -0.04811,   0.57835  )

     Band symmetry, C_1 (1)     point group:

     e(  1 -  1) =     -7.86178  eV     1   --> A              
     e(  2 -  2) =     -7.73438  eV     1   --> A              
     e(  3 -  3) =     -7.71684  eV     1   --> A              
     e(  4 -  4) =     -7.69601  eV     1   --> A              
     e(  5 -  5) =     -7.67207  eV     1   --> A              
     e(  6 -  6) =     -2.65627  eV     1   --> A              
     e(  7 -  7) =      0.27318  eV     1   --> A              
     e(  8 -  8) =      3.32667  eV     1   --> A              
     e(  9 -  9) =      3.47029  eV     1   --> A              
     e( 10 - 10) =     10.95394  eV     1   --> A              

 **************************************************************************

 **************************************************************************

                    xk=(   0.50000,  -0.03849,   0.58516  )

     Band symmetry, C_1 (1)     point group:

     e(  1 -  1) =     -7.86129  eV     1   --> A              
     e(  2 -  2) =     -7.73502  eV     1   --> A              
     e(  3 -  3) =     -7.71687  eV     1   --> A              
     e(  4 -  4) =     -7.69552  eV     1   --> A              
     e(  5 -  5) =     -7.67248  eV     1   --> A              
     e(  6 -  6) =     -2.65427  eV     1   --> A              
     e(  7 -  7) =      0.27838  eV     1   --> A              
     e(  8 -  8) =      3.30872  eV     1   --> A              
     e(  9 -  9) =      3.45633  eV     1   --> A              
     e( 10 - 10) =     11.09278  eV     1   --> A              

 **************************************************************************

 **************************************************************************

                    xk=(   0.50000,  -0.02887,   0.59196  )

     Band symmetry, C_1 (1)     point group:

     e(  1 -  1) =     -7.86090  eV     1   --> A              
     e(  2 -  2) =     -7.73553  eV     1   --> A              
     e(  3 -  3) =     -7.71689  eV     1   --> A              
     e(  4 -  4) =     -7.69513  eV     1   --> A              
     e(  5 -  5) =     -7.67281  eV     1   --> A              
     e(  6 -  6) =     -2.65268  eV     1   --> A              
     e(  7 -  7) =      0.28252  eV     1   --> A              
     e(  8 -  8) =      3.29460  eV     1   --> A              
     e(  9 -  9) =      3.44538  eV     1   --> A              
     e( 10 - 10) =     11.21914  eV     1   --> A              

 **************************************************************************

 **************************************************************************

                    xk=(   0.50000,  -0.01925,   0.59876  )

     Band symmetry, C_1 (1)     point group:

     e(  1 -  1) =     -7.86061  eV     1   --> A              
     e(  2 -  2) =     -7.73590  eV     1   --> A              
     e(  3 -  3) =     -7.71691  eV     1   --> A              
     e(  4 -  4) =     -7.69484  eV     1   --> A              
     e(  5 -  5) =     -7.67306  eV     1   --> A              
     e(  6 -  6) =     -2.65154  eV     1   --> A              
     e(  7 -  7) =      0.28552  eV     1   --> A              
     e(  8 -  8) =      3.28442  eV     1   --> A              
     e(  9 -  9) =      3.43751  eV     1   --> A              
     e( 10 - 10) =     11.32440  eV     1   --> A              

 **************************************************************************

 **************************************************************************

                    xk=(   0.50000,  -0.00962,   0.60557  )

     Band symmetry, C_1 (1)     point group:

     e(  1 -  1) =     -7.86043  eV     1   --> A              
     e(  2 -  2) =     -7.73612  eV     1   --> A              
     e(  3 -  3) =     -7.71690  eV     1   --> A              
     e(  4 -  4) =     -7.69464  eV     1   --> A              
     e(  5 -  5) =     -7.67321  eV     1   --> A              
     e(  6 -  6) =     -2.65084  eV     1   --> A              
     e(  7 -  7) =      0.28734  eV     1   --> A              
     e(  8 -  8) =      3.27831  eV     1   --> A              
     e(  9 -  9) =      3.43277  eV     1   --> A              
     e( 10 - 10) =     11.39647  eV     1   --> A              

 **************************************************************************

 **************************************************************************

                    xk=(   0.50000,   0.00000,   0.61237  )

     Band symmetry, C_1 (1)     point group:

     e(  1 -  1) =     -7.86032  eV     1   --> A              
     e(  2 -  2) =     -7.73615  eV     1   --> A              
     e(  3 -  3) =     -7.71688  eV     1   --> A              
     e(  4 -  4) =     -7.69456  eV     1   --> A              
     e(  5 -  5) =     -7.67322  eV     1   --> A              
     e(  6 -  6) =     -2.65059  eV     1   --> A              
     e(  7 -  7) =      0.28795  eV     1   --> A              
     e(  8 -  8) =      3.27628  eV     1   --> A              
     e(  9 -  9) =      3.43119  eV     1   --> A              
     e( 10 - 10) =     11.42268  eV     1   --> A              

 **************************************************************************

 **************************************************************************

                    xk=(   0.49583,   0.00722,   0.61196  )

     Band symmetry, C_1 (1)     point group:

     e(  1 -  1) =     -7.86036  eV     1   --> A              
     e(  2 -  2) =     -7.73616  eV     1   --> A              
     e(  3 -  3) =     -7.71691  eV     1   --> A              
     e(  4 -  4) =     -7.69460  eV     1   --> A              
     e(  5 -  5) =     -7.67325  eV     1   --> A              
     e(  6 -  6) =     -2.65116  eV     1   --> A              
     e(  7 -  7) =      0.28819  eV     1   --> A              
     e(  8 -  8) =      3.27221  eV     1   --> A              
     e(  9 -  9) =      3.43708  eV     1   --> A              
     e( 10 - 10) =     11.39073  eV     1   --> A              

 **************************************************************************

 **************************************************************************

                    xk=(   0.49167,   0.01443,   0.61156  )

     Band symmetry, C_1 (1)     point group:

     e(  1 -  1) =     -7.86039  eV     1   --> A              
     e(  2 -  2) =     -7.73614  eV     1   --> A              
     e(  3 -  3) =     -7.71696  eV     1   --> A              
     e(  4 -  4) =     -7.69464  eV     1   --> A              
     e(  5 -  5) =     -7.67323  eV     1   --> A              
     e(  6 -  6) =     -2.65278  eV     1   --> A              
     e(  7 -  7) =      0.28886  eV     1   --> A              
     e(  8 -  8) =      3.26091  eV     1   --> A              
     e(  9 -  9) =      3.45386  eV     1   --> A              
     e( 10 - 10) =     11.33087  eV     1   --> A              

 **************************************************************************

 **************************************************************************

                    xk=(   0.48750,   0.02165,   0.61115  )

     Band symmetry, C_1 (1)     point group:

     e(  1 -  1) =     -7.86042  eV     1   --> A              
     e(  2 -  2) =     -7.73608  eV     1   --> A              
     e(  3 -  3) =     -7.71700  eV     1   --> A              
     e(  4 -  4) =     -7.69469  eV     1   --> A              
     e(  5 -  5) =     -7.67319  eV     1   --> A              
     e(  6 -  6) =     -2.65533  eV     1   --> A              
     e(  7 -  7) =      0.28985  eV     1   --> A              
     e(  8 -  8) =      3.24479  eV     1   --> A              
     e(  9 -  9) =      3.47909  eV     1   --> A              
     e( 10 - 10) =     11.25324  eV     1   --> A              

 **************************************************************************

 **************************************************************************

                    xk=(   0.48333,   0.02887,   0.61074  )

     Band symmetry, C_1 (1)     point group:

     e(  1 -  1) =     -7.86046  eV     1   --> A              
     e(  2 -  2) =     -7.73600  eV     1   --> A              
     e(  3 -  3) =     -7.71705  eV     1   --> A              
     e(  4 -  4) =     -7.69475  eV     1   --> A              
     e(  5 -  5) =     -7.67313  eV     1   --> A              
     e(  6 -  6) =     -2.65871  eV     1   --> A              
     e(  7 -  7) =      0.29106  eV     1   --> A              
     e(  8 -  8) =      3.22604  eV     1   --> A              
     e(  9 -  9) =      3.51045  eV     1   --> A              
     e( 10 - 10) =     11.16151  eV     1   --> A              

 **************************************************************************

 **************************************************************************

                    xk=(   0.47917,   0.03608,   0.61033  )

     Band symmetry, C_1 (1)     point group:

     e(  1 -  1) =     -7.86051  eV     1   --> A              
     e(  2 -  2) =     -7.73589  eV     1   --> A              
     e(  3 -  3) =     -7.71711  eV     1   --> A              
     e(  4 -  4) =     -7.69482  eV     1   --> A              
     e(  5 -  5) =     -7.67305  eV     1   --> A              
     e(  6 -  6) =     -2.66283  eV     1   --> A              
     e(  7 -  7) =      0.29242  eV     1   --> A              
     e(  8 -  8) =      3.20604  eV     1   --> A              
     e(  9 -  9) =      3.54645  eV     1   --> A              
     e( 10 - 10) =     11.05917  eV     1   --> A              

 **************************************************************************

 **************************************************************************

                    xk=(   0.47500,   0.04330,   0.60992  )

     Band symmetry, C_1 (1)     point group:

     e(  1 -  1) =     -7.86058  eV     1   --> A              
     e(  2 -  2) =     -7.73576  eV     1   --> A              
     e(  3 -  3) =     -7.71719  eV     1   --> A              
     e(  4 -  4) =     -7.69491  eV     1   --> A              
     e(  5 -  5) =     -7.67296  eV     1   --> A              
     e(  6 -  6) =     -2.66759  eV     1   --> A              
     e(  7 -  7) =      0.29386  eV     1   --> A              
     e(  8 -  8) =      3.18559  eV     1   --> A              
     e(  9 -  9) =      3.58617  eV     1   --> A              
     e( 10 - 10) =     10.94925  eV     1   --> A              

 **************************************************************************

 **************************************************************************

                    xk=(   0.47083,   0.05052,   0.60951  )

     Band symmetry, C_1 (1)     point group:

     e(  1 -  1) =     -7.86065  eV     1   --> A              
     e(  2 -  2) =     -7.73560  eV     1   --> A              
     e(  3 -  3) =     -7.71728  eV     1   --> A              
     e(  4 -  4) =     -7.69502  eV     1   --> A              
     e(  5 -  5) =     -7.67286  eV     1   --> A              
     e(  6 -  6) =     -2.67288  eV     1   --> A              
     e(  7 -  7) =      0.29533  eV     1   --> A              
     e(  8 -  8) =      3.16514  eV     1   --> A              
     e(  9 -  9) =      3.62899  eV     1   --> A              
     e( 10 - 10) =     10.83425  eV     1   --> A              

 **************************************************************************

 **************************************************************************

                    xk=(   0.46667,   0.05774,   0.60911  )

     Band symmetry, C_1 (1)     point group:

     e(  1 -  1) =     -7.86073  eV     1   --> A              
     e(  2 -  2) =     -7.73542  eV     1   --> A              
     e(  3 -  3) =     -7.71738  eV     1   --> A              
     e(  4 -  4) =     -7.69513  eV     1   --> A              
     e(  5 -  5) =     -7.67274  eV     1   --> A              
     e(  6 -  6) =     -2.67861  eV     1   --> A              
     e(  7 -  7) =      0.29677  eV     1   --> A              
     e(  8 -  8) =      3.14498  eV     1   --> A              
     e(  9 -  9) =      3.67447  eV     1   --> A              
     e( 10 - 10) =     10.71615  eV     1   --> A              

 **************************************************************************

 **************************************************************************

                    xk=(   0.46250,   0.06495,   0.60870  )

     Band symmetry, C_1 (1)     point group:

     e(  1 -  1) =     -7.86082  eV     1   --> A              
     e(  2 -  2) =     -7.73521  eV     1   --> A              
     e(  3 -  3) =     -7.71749  eV     1   --> A              
     e(  4 -  4) =     -7.69525  eV     1   --> A              
     e(  5 -  5) =     -7.67261  eV     1   --> A              
     e(  6 -  6) =     -2.68470  eV     1   --> A              
     e(  7 -  7) =      0.29815  eV     1   --> A              
     e(  8 -  8) =      3.12528  eV     1   --> A              
     e(  9 -  9) =      3.72222  eV     1   --> A              
     e( 10 - 10) =     10.59642  eV     1   --> A              

 **************************************************************************

 **************************************************************************

                    xk=(   0.45833,   0.07217,   0.60829  )

     Band symmetry, C_1 (1)     point group:

     e(  1 -  1) =     -7.86092  eV     1   --> A              
     e(  2 -  2) =     -7.73499  eV     1   --> A              
     e(  3 -  3) =     -7.71762  eV     1   --> A              
     e(  4 -  4) =     -7.69538  eV     1   --> A              
     e(  5 -  5) =     -7.67248  eV     1   --> A              
     e(  6 -  6) =     -2.69107  eV     1   --> A              
     e(  7 -  7) =      0.29946  eV     1   --> A              
     e(  8 -  8) =      3.10616  eV     1   --> A              
     e(  9 -  9) =      3.77190  eV     1   --> A              
     e( 10 - 10) =     10.47624  eV     1   --> A              

 **************************************************************************

 **************************************************************************

                    xk=(   0.45417,   0.07939,   0.60788  )

     Band symmetry, C_1 (1)     point group:

     e(  1 -  1) =     -7.86103  eV     1   --> A              
     e(  2 -  2) =     -7.73475  eV     1   --> A              
     e(  3 -  3) =     -7.71776  eV     1   --> A              
     e(  4 -  4) =     -7.69552  eV     1   --> A              
     e(  5 -  5) =     -7.67236  eV     1   --> A              
     e(  6 -  6) =     -2.69762  eV     1   --> A              
     e(  7 -  7) =      0.30066  eV     1   --> A              
     e(  8 -  8) =      3.08770  eV     1   --> A              
     e(  9 -  9) =      3.82320  eV     1   --> A              
     e( 10 - 10) =     10.35659  eV     1   --> A              

 **************************************************************************

 **************************************************************************

                    xk=(   0.45000,   0.08660,   0.60747  )

     Band symmetry, C_1 (1)     point group:

     e(  1 -  1) =     -7.86115  eV     1   --> A              
     e(  2 -  2) =     -7.73450  eV     1   --> A              
     e(  3 -  3) =     -7.71791  eV     1   --> A              
     e(  4 -  4) =     -7.69567  eV     1   --> A              
     e(  5 -  5) =     -7.67223  eV     1   --> A              
     e(  6 -  6) =     -2.70429  eV     1   --> A              
     e(  7 -  7) =      0.30175  eV     1   --> A              
     e(  8 -  8) =      3.06997  eV     1   --> A              
     e(  9 -  9) =      3.87579  eV     1   --> A              
     e( 10 - 10) =     10.23829  eV     1   --> A              

 **************************************************************************

 **************************************************************************

                    xk=(   0.44583,   0.09382,   0.60707  )

     Band symmetry, C_1 (1)     point group:

     e(  1 -  1) =     -7.86127  eV     1   --> A              
     e(  2 -  2) =     -7.73423  eV     1   --> A              
     e(  3 -  3) =     -7.71807  eV     1   --> A              
     e(  4 -  4) =     -7.69581  eV     1   --> A              
     e(  5 -  5) =     -7.67209  eV     1   --> A              
     e(  6 -  6) =     -2.71100  eV     1   --> A              
     e(  7 -  7) =      0.30272  eV     1   --> A              
     e(  8 -  8) =      3.05301  eV     1   --> A              
     e(  9 -  9) =      3.92932  eV     1   --> A              
     e( 10 - 10) =     10.12201  eV     1   --> A              

 **************************************************************************

 **************************************************************************

                    xk=(   0.44167,   0.10104,   0.60666  )

     Band symmetry, C_1 (1)     point group:

     e(  1 -  1) =     -7.86139  eV     1   --> A              
     e(  2 -  2) =     -7.73394  eV     1   --> A              
     e(  3 -  3) =     -7.71824  eV     1   --> A              
     e(  4 -  4) =     -7.69595  eV     1   --> A              
     e(  5 -  5) =     -7.67195  eV     1   --> A              
     e(  6 -  6) =     -2.71770  eV     1   --> A              
     e(  7 -  7) =      0.30359  eV     1   --> A              
     e(  8 -  8) =      3.03685  eV     1   --> A              
     e(  9 -  9) =      3.98345  eV     1   --> A              
     e( 10 - 10) =     10.00835  eV     1   --> A              

 **************************************************************************

 **************************************************************************

                    xk=(   0.43750,   0.10825,   0.60625  )

     Band symmetry, C_1 (1)     point group:

     e(  1 -  1) =     -7.86152  eV     1   --> A              
     e(  2 -  2) =     -7.73364  eV     1   --> A              
     e(  3 -  3) =     -7.71842  eV     1   --> A              
     e(  4 -  4) =     -7.69610  eV     1   --> A              
     e(  5 -  5) =     -7.67182  eV     1   --> A              
     e(  6 -  6) =     -2.72431  eV     1   --> A              
     e(  7 -  7) =      0.30434  eV     1   --> A              
     e(  8 -  8) =      3.02152  eV     1   --> A              
     e(  9 -  9) =      4.03781  eV     1   --> A              
     e( 10 - 10) =      9.89785  eV     1   --> A              

 **************************************************************************

 **************************************************************************

                    xk=(   0.43333,   0.11547,   0.60584  )

     Band symmetry, C_1 (1)     point group:

     e(  1 -  1) =     -7.86165  eV     1   --> A              
     e(  2 -  2) =     -7.73334  eV     1   --> A              
     e(  3 -  3) =     -7.71861  eV     1   --> A              
     e(  4 -  4) =     -7.69625  eV     1   --> A              
     e(  5 -  5) =     -7.67168  eV     1   --> A              
     e(  6 -  6) =     -2.73079  eV     1   --> A              
     e(  7 -  7) =      0.30500  eV     1   --> A              
     e(  8 -  8) =      3.00705  eV     1   --> A              
     e(  9 -  9) =      4.09200  eV     1   --> A              
     e( 10 - 10) =      9.79105  eV     1   --> A              

 **************************************************************************

 **************************************************************************

                    xk=(   0.42917,   0.12269,   0.60543  )

     Band symmetry, C_1 (1)     point group:

     e(  1 -  1) =     -7.86177  eV     1   --> A              
     e(  2 -  2) =     -7.73303  eV     1   --> A              
     e(  3 -  3) =     -7.71880  eV     1   --> A              
     e(  4 -  4) =     -7.69639  eV     1   --> A              
     e(  5 -  5) =     -7.67156  eV     1   --> A              
     e(  6 -  6) =     -2.73708  eV     1   --> A              
     e(  7 -  7) =      0.30557  eV     1   --> A              
     e(  8 -  8) =      2.99345  eV     1   --> A              
     e(  9 -  9) =      4.14561  eV     1   --> A              
     e( 10 - 10) =      9.68849  eV     1   --> A              

 **************************************************************************

 **************************************************************************

                    xk=(   0.42500,   0.12990,   0.60502  )

     Band symmetry, C_1 (1)     point group:

     e(  1 -  1) =     -7.86189  eV     1   --> A              
     e(  2 -  2) =     -7.73272  eV     1   --> A              
     e(  3 -  3) =     -7.71900  eV     1   --> A              
     e(  4 -  4) =     -7.69652  eV     1   --> A              
     e(  5 -  5) =     -7.67144  eV     1   --> A              
     e(  6 -  6) =     -2.74313  eV     1   --> A              
     e(  7 -  7) =      0.30607  eV     1   --> A              
     e(  8 -  8) =      2.98075  eV     1   --> A              
     e(  9 -  9) =      4.19820  eV     1   --> A              
     e( 10 - 10) =      9.59063  eV     1   --> A              

 **************************************************************************

 **************************************************************************

                    xk=(   0.42083,   0.13712,   0.60462  )

     Band symmetry, C_1 (1)     point group:

     e(  1 -  1) =     -7.86200  eV     1   --> A              
     e(  2 -  2) =     -7.73240  eV     1   --> A              
     e(  3 -  3) =     -7.71921  eV     1   --> A              
     e(  4 -  4) =     -7.69665  eV     1   --> A              
     e(  5 -  5) =     -7.67132  eV     1   --> A              
     e(  6 -  6) =     -2.74890  eV     1   --> A              
     e(  7 -  7) =      0.30651  eV     1   --> A              
     e(  8 -  8) =      2.96896  eV     1   --> A              
     e(  9 -  9) =      4.24932  eV     1   --> A              
     e( 10 - 10) =      9.49802  eV     1   --> A              

 **************************************************************************

 **************************************************************************

                    xk=(   0.41667,   0.14434,   0.60421  )

     Band symmetry, C_1 (1)     point group:

     e(  1 -  1) =     -7.86210  eV     1   --> A              
     e(  2 -  2) =     -7.73209  eV     1   --> A              
     e(  3 -  3) =     -7.71940  eV     1   --> A              
     e(  4 -  4) =     -7.69676  eV     1   --> A              
     e(  5 -  5) =     -7.67122  eV     1   --> A              
     e(  6 -  6) =     -2.75435  eV     1   --> A              
     e(  7 -  7) =      0.30691  eV     1   --> A              
     e(  8 -  8) =      2.95808  eV     1   --> A              
     e(  9 -  9) =      4.29848  eV     1   --> A              
     e( 10 - 10) =      9.41115  eV     1   --> A              

 **************************************************************************

 **************************************************************************

                    xk=(   0.41250,   0.15155,   0.60380  )

     Band symmetry, C_1 (1)     point group:

     e(  1 -  1) =     -7.86220  eV     1   --> A              
     e(  2 -  2) =     -7.73179  eV     1   --> A              
     e(  3 -  3) =     -7.71960  eV     1   --> A              
     e(  4 -  4) =     -7.69687  eV     1   --> A              
     e(  5 -  5) =     -7.67110  eV     1   --> A              
     e(  6 -  6) =     -2.75944  eV     1   --> A              
     e(  7 -  7) =      0.30729  eV     1   --> A              
     e(  8 -  8) =      2.94814  eV     1   --> A              
     e(  9 -  9) =      4.34519  eV     1   --> A              
     e( 10 - 10) =      9.33054  eV     1   --> A              

 **************************************************************************

 **************************************************************************

                    xk=(   0.40833,   0.15877,   0.60339  )

     Band symmetry, C_1 (1)     point group:

     e(  1 -  1) =     -7.86228  eV     1   --> A              
     e(  2 -  2) =     -7.73151  eV     1   --> A              
     e(  3 -  3) =     -7.71980  eV     1   --> A              
     e(  4 -  4) =     -7.69696  eV     1   --> A              
     e(  5 -  5) =     -7.67102  eV     1   --> A              
     e(  6 -  6) =     -2.76414  eV     1   --> A              
     e(  7 -  7) =      0.30765  eV     1   --> A              
     e(  8 -  8) =      2.93913  eV     1   --> A              
     e(  9 -  9) =      4.38893  eV     1   --> A              
     e( 10 - 10) =      9.25669  eV     1   --> A              

 **************************************************************************

 **************************************************************************

                    xk=(   0.40417,   0.16599,   0.60298  )

     Band symmetry, C_1 (1)     point group:

     e(  1 -  1) =     -7.86237  eV     1   --> A              
     e(  2 -  2) =     -7.73124  eV     1   --> A              
     e(  3 -  3) =     -7.72000  eV     1   --> A              
     e(  4 -  4) =     -7.69705  eV     1   --> A              
     e(  5 -  5) =     -7.67094  eV     1   --> A              
     e(  6 -  6) =     -2.76844  eV     1   --> A              
     e(  7 -  7) =      0.30801  eV     1   --> A              
     e(  8 -  8) =      2.93106  eV     1   --> A              
     e(  9 -  9) =      4.42921  eV     1   --> A              
     e( 10 - 10) =      9.19006  eV     1   --> A              

 **************************************************************************

 **************************************************************************

                    xk=(   0.40000,   0.17321,   0.60257  )

     Band symmetry, C_1 (1)     point group:

     e(  1 -  1) =     -7.86243  eV     1   --> A              
     e(  2 -  2) =     -7.73100  eV     1   --> A              
     e(  3 -  3) =     -7.72019  eV     1   --> A              
     e(  4 -  4) =     -7.69712  eV     1   --> A              
     e(  5 -  5) =     -7.67087  eV     1   --> A              
     e(  6 -  6) =     -2.77228  eV     1   --> A              
     e(  7 -  7) =      0.30839  eV     1   --> A              
     e(  8 -  8) =      2.92396  eV     1   --> A              
[...]
     e(  7 -  7) =      0.44289  eV     1   --> A              
     e(  8 -  8) =      2.97636  eV     1   --> A              
     e(  9 -  9) =      4.15539  eV     1   --> A              
     e( 10 - 10) =     10.47428  eV     1   --> A              

 **************************************************************************

 **************************************************************************

                    xk=(   0.41667,   0.04811,   0.53617  )

     Band symmetry, C_1 (1)     point group:

     e(  1 -  1) =     -7.85725  eV     1   --> A              
     e(  2 -  2) =     -7.73824  eV     1   --> A              
     e(  3 -  3) =     -7.72047  eV     1   --> A              
     e(  4 -  4) =     -7.69265  eV     1   --> A              
     e(  5 -  5) =     -7.67412  eV     1   --> A              
     e(  6 -  6) =     -2.85075  eV     1   --> A              
     e(  7 -  7) =      0.44978  eV     1   --> A              
     e(  8 -  8) =      3.01664  eV     1   --> A              
     e(  9 -  9) =      4.08403  eV     1   --> A              
     e( 10 - 10) =     10.69967  eV     1   --> A              

 **************************************************************************

 **************************************************************************

                    xk=(   0.42083,   0.03127,   0.52977  )

     Band symmetry, C_1 (1)     point group:

     e(  1 -  1) =     -7.85761  eV     1   --> A              
     e(  2 -  2) =     -7.73797  eV     1   --> A              
     e(  3 -  3) =     -7.72013  eV     1   --> A              
     e(  4 -  4) =     -7.69318  eV     1   --> A              
     e(  5 -  5) =     -7.67372  eV     1   --> A              
     e(  6 -  6) =     -2.85003  eV     1   --> A              
     e(  7 -  7) =      0.45318  eV     1   --> A              
     e(  8 -  8) =      3.06259  eV     1   --> A              
     e(  9 -  9) =      4.01847  eV     1   --> A              
     e( 10 - 10) =     10.87354  eV     1   --> A              

 **************************************************************************

 **************************************************************************

                    xk=(   0.42500,   0.01443,   0.52337  )

     Band symmetry, C_1 (1)     point group:

     e(  1 -  1) =     -7.85820  eV     1   --> A              
     e(  2 -  2) =     -7.73737  eV     1   --> A              
     e(  3 -  3) =     -7.71977  eV     1   --> A              
     e(  4 -  4) =     -7.69390  eV     1   --> A              
     e(  5 -  5) =     -7.67318  eV     1   --> A              
     e(  6 -  6) =     -2.84799  eV     1   --> A              
     e(  7 -  7) =      0.45263  eV     1   --> A              
     e(  8 -  8) =      3.11389  eV     1   --> A              
     e(  9 -  9) =      3.96050  eV     1   --> A              
     e( 10 - 10) =     10.93648  eV     1   --> A              

 **************************************************************************

 **************************************************************************

                    xk=(   0.42917,  -0.00241,   0.51698  )

     Band symmetry, C_1 (1)     point group:

     e(  1 -  1) =     -7.85901  eV     1   --> A              
     e(  2 -  2) =     -7.73645  eV     1   --> A              
     e(  3 -  3) =     -7.71940  eV     1   --> A              
     e(  4 -  4) =     -7.69481  eV     1   --> A              
     e(  5 -  5) =     -7.67250  eV     1   --> A              
     e(  6 -  6) =     -2.84467  eV     1   --> A              
     e(  7 -  7) =      0.44778  eV     1   --> A              
     e(  8 -  8) =      3.17016  eV     1   --> A              
     e(  9 -  9) =      3.91151  eV     1   --> A              
     e( 10 - 10) =     10.86319  eV     1   --> A              

 **************************************************************************

 **************************************************************************

                    xk=(   0.43333,  -0.01925,   0.51058  )

     Band symmetry, C_1 (1)     point group:

     e(  1 -  1) =     -7.86004  eV     1   --> A              
     e(  2 -  2) =     -7.73524  eV     1   --> A              
     e(  3 -  3) =     -7.71903  eV     1   --> A              
     e(  4 -  4) =     -7.69584  eV     1   --> A              
     e(  5 -  5) =     -7.67171  eV     1   --> A              
     e(  6 -  6) =     -2.84015  eV     1   --> A              
     e(  7 -  7) =      0.43845  eV     1   --> A              
     e(  8 -  8) =      3.23096  eV     1   --> A              
     e(  9 -  9) =      3.87249  eV     1   --> A              
     e( 10 - 10) =     10.70146  eV     1   --> A              

 **************************************************************************

 **************************************************************************

                    xk=(   0.43750,  -0.03608,   0.50419  )

     Band symmetry, C_1 (1)     point group:

     e(  1 -  1) =     -7.86128  eV     1   --> A              
     e(  2 -  2) =     -7.73378  eV     1   --> A              
     e(  3 -  3) =     -7.71866  eV     1   --> A              
     e(  4 -  4) =     -7.69699  eV     1   --> A              
     e(  5 -  5) =     -7.67087  eV     1   --> A              
     e(  6 -  6) =     -2.83453  eV     1   --> A              
     e(  7 -  7) =      0.42462  eV     1   --> A              
     e(  8 -  8) =      3.29581  eV     1   --> A              
     e(  9 -  9) =      3.84404  eV     1   --> A              
     e( 10 - 10) =     10.50136  eV     1   --> A              

 **************************************************************************

 **************************************************************************

                    xk=(   0.44167,  -0.05292,   0.49779  )

     Band symmetry, C_1 (1)     point group:

     e(  1 -  1) =     -7.86262  eV     1   --> A              
     e(  2 -  2) =     -7.73207  eV     1   --> A              
     e(  3 -  3) =     -7.71827  eV     1   --> A              
     e(  4 -  4) =     -7.69819  eV     1   --> A              
     e(  5 -  5) =     -7.66996  eV     1   --> A              
     e(  6 -  6) =     -2.82790  eV     1   --> A              
     e(  7 -  7) =      0.40647  eV     1   --> A              
     e(  8 -  8) =      3.36412  eV     1   --> A              
     e(  9 -  9) =      3.82638  eV     1   --> A              
     e( 10 - 10) =     10.28817  eV     1   --> A              

 **************************************************************************

 **************************************************************************

                    xk=(   0.44583,  -0.06976,   0.49139  )

     Band symmetry, C_1 (1)     point group:

     e(  1 -  1) =     -7.86411  eV     1   --> A              
     e(  2 -  2) =     -7.73023  eV     1   --> A              
     e(  3 -  3) =     -7.71789  eV     1   --> A              
     e(  4 -  4) =     -7.69942  eV     1   --> A              
     e(  5 -  5) =     -7.66904  eV     1   --> A              
     e(  6 -  6) =     -2.82040  eV     1   --> A              
     e(  7 -  7) =      0.38438  eV     1   --> A              
     e(  8 -  8) =      3.43524  eV     1   --> A              
     e(  9 -  9) =      3.81934  eV     1   --> A              
     e( 10 - 10) =     10.07311  eV     1   --> A              

 **************************************************************************

 **************************************************************************

                    xk=(   0.45000,  -0.08660,   0.48500  )

     Band symmetry, C_1 (1)     point group:

     e(  1 -  1) =     -7.86568  eV     1   --> A              
     e(  2 -  2) =     -7.72828  eV     1   --> A              
     e(  3 -  3) =     -7.71753  eV     1   --> A              
     e(  4 -  4) =     -7.70069  eV     1   --> A              
     e(  5 -  5) =     -7.66815  eV     1   --> A              
     e(  6 -  6) =     -2.81220  eV     1   --> A              
     e(  7 -  7) =      0.35890  eV     1   --> A              
     e(  8 -  8) =      3.50839  eV     1   --> A              
     e(  9 -  9) =      3.82240  eV     1   --> A              
     e( 10 - 10) =      9.86194  eV     1   --> A              

 **************************************************************************

 **************************************************************************

                    xk=(   0.45417,  -0.10344,   0.47860  )

     Band symmetry, C_1 (1)     point group:

     e(  1 -  1) =     -7.86727  eV     1   --> A              
     e(  2 -  2) =     -7.72626  eV     1   --> A              
     e(  3 -  3) =     -7.71717  eV     1   --> A              
     e(  4 -  4) =     -7.70195  eV     1   --> A              
     e(  5 -  5) =     -7.66727  eV     1   --> A              
     e(  6 -  6) =     -2.80345  eV     1   --> A              
     e(  7 -  7) =      0.33078  eV     1   --> A              
     e(  8 -  8) =      3.58272  eV     1   --> A              
     e(  9 -  9) =      3.83473  eV     1   --> A              
     e( 10 - 10) =      9.65820  eV     1   --> A              

 **************************************************************************

 **************************************************************************

                    xk=(   0.45833,  -0.12028,   0.47221  )

     Band symmetry, C_1 (1)     point group:

     e(  1 -  1) =     -7.86886  eV     1   --> A              
     e(  2 -  2) =     -7.72422  eV     1   --> A              
     e(  3 -  3) =     -7.71680  eV     1   --> A              
     e(  4 -  4) =     -7.70318  eV     1   --> A              
     e(  5 -  5) =     -7.66641  eV     1   --> A              
     e(  6 -  6) =     -2.79436  eV     1   --> A              
     e(  7 -  7) =      0.30085  eV     1   --> A              
     e(  8 -  8) =      3.65724  eV     1   --> A              
     e(  9 -  9) =      3.85520  eV     1   --> A              
     e( 10 - 10) =      9.46427  eV     1   --> A              

 **************************************************************************

 **************************************************************************

                    xk=(   0.46250,  -0.13712,   0.46581  )

     Band symmetry, C_1 (1)     point group:

     e(  1 -  1) =     -7.87041  eV     1   --> A              
     e(  2 -  2) =     -7.72222  eV     1   --> A              
     e(  3 -  3) =     -7.71645  eV     1   --> A              
     e(  4 -  4) =     -7.70440  eV     1   --> A              
     e(  5 -  5) =     -7.66559  eV     1   --> A              
     e(  6 -  6) =     -2.78513  eV     1   --> A              
     e(  7 -  7) =      0.27002  eV     1   --> A              
     e(  8 -  8) =      3.73083  eV     1   --> A              
     e(  9 -  9) =      3.88243  eV     1   --> A              
     e( 10 - 10) =      9.28216  eV     1   --> A              

 **************************************************************************

 **************************************************************************

                    xk=(   0.46667,  -0.15396,   0.45942  )

     Band symmetry, C_1 (1)     point group:

     e(  1 -  1) =     -7.87188  eV     1   --> A              
     e(  2 -  2) =     -7.72031  eV     1   --> A              
     e(  3 -  3) =     -7.71607  eV     1   --> A              
     e(  4 -  4) =     -7.70555  eV     1   --> A              
     e(  5 -  5) =     -7.66483  eV     1   --> A              
     e(  6 -  6) =     -2.77598  eV     1   --> A              
     e(  7 -  7) =      0.23925  eV     1   --> A              
     e(  8 -  8) =      3.80226  eV     1   --> A              
     e(  9 -  9) =      3.91483  eV     1   --> A              
     e( 10 - 10) =      9.11367  eV     1   --> A              

 **************************************************************************

 **************************************************************************

                    xk=(   0.47083,  -0.17080,   0.45302  )

     Band symmetry, C_1 (1)     point group:

     e(  1 -  1) =     -7.87327  eV     1   --> A              
     e(  2 -  2) =     -7.71853  eV     1   --> A              
     e(  3 -  3) =     -7.71570  eV     1   --> A              
     e(  4 -  4) =     -7.70665  eV     1   --> A              
     e(  5 -  5) =     -7.66414  eV     1   --> A              
     e(  6 -  6) =     -2.76716  eV     1   --> A              
     e(  7 -  7) =      0.20948  eV     1   --> A              
     e(  8 -  8) =      3.87014  eV     1   --> A              
     e(  9 -  9) =      3.95062  eV     1   --> A              
     e( 10 - 10) =      8.96045  eV     1   --> A              

 **************************************************************************

 **************************************************************************

                    xk=(   0.47500,  -0.18764,   0.44662  )

     Band symmetry, C_1 (1)     point group:

     e(  1 -  1) =     -7.87453  eV     1   --> A              
     e(  2 -  2) =     -7.71692  eV     1   --> A              
     e(  3 -  3) =     -7.71532  eV     1   --> A              
     e(  4 -  4) =     -7.70769  eV     1   --> A              
     e(  5 -  5) =     -7.66352  eV     1   --> A              
     e(  6 -  6) =     -2.75890  eV     1   --> A              
     e(  7 -  7) =      0.18161  eV     1   --> A              
     e(  8 -  8) =      3.93303  eV     1   --> A              
     e(  9 -  9) =      3.98785  eV     1   --> A              
     e( 10 - 10) =      8.82425  eV     1   --> A              

 **************************************************************************

 **************************************************************************

                    xk=(   0.47917,  -0.20448,   0.44023  )

     Band symmetry, C_1 (1)     point group:

     e(  1 -  1) =     -7.87562  eV     1   --> A              
     e(  2 -  2) =     -7.71551  eV     1   --> A              
     e(  3 -  3) =     -7.71491  eV     1   --> A              
     e(  4 -  4) =     -7.70865  eV     1   --> A              
     e(  5 -  5) =     -7.66299  eV     1   --> A              
     e(  6 -  6) =     -2.75143  eV     1   --> A              
     e(  7 -  7) =      0.15648  eV     1   --> A              
     e(  8 -  8) =      3.98944  eV     1   --> A              
     e(  9 -  9) =      4.02448  eV     1   --> A              
     e( 10 - 10) =      8.70668  eV     1   --> A              

 **************************************************************************

 **************************************************************************

                    xk=(   0.48333,  -0.22132,   0.43383  )

     Band symmetry, C_1 (1)     point group:

     e(  1 -  1) =     -7.87653  eV     1   --> A              
     e(  2 -  2) =     -7.71457  eV     1   --> A              
     e(  3 -  3) =     -7.71422  eV     1   --> A              
     e(  4 -  4) =     -7.70953  eV     1   --> A              
     e(  5 -  5) =     -7.66254  eV     1   --> A              
     e(  6 -  6) =     -2.74497  eV     1   --> A              
     e(  7 -  7) =      0.13484  eV     1   --> A              
     e(  8 -  8) =      4.03789  eV     1   --> A              
     e(  9 -  9) =      4.05843  eV     1   --> A              
     e( 10 - 10) =      8.60914  eV     1   --> A              

 **************************************************************************

 **************************************************************************

                    xk=(   0.48750,  -0.23816,   0.42744  )

     Band symmetry, C_1 (1)     point group:

     e(  1 -  1) =     -7.87725  eV     1   --> A              
     e(  2 -  2) =     -7.71411  eV     1   --> A              
     e(  3 -  3) =     -7.71329  eV     1   --> A              
     e(  4 -  4) =     -7.71034  eV     1   --> A              
     e(  5 -  5) =     -7.66218  eV     1   --> A              
     e(  6 -  6) =     -2.73972  eV     1   --> A              
     e(  7 -  7) =      0.11733  eV     1   --> A              
     e(  8 -  8) =      4.07705  eV     1   --> A              
     e(  9 -  9) =      4.08762  eV     1   --> A              
     e( 10 - 10) =      8.53272  eV     1   --> A              

 **************************************************************************

 **************************************************************************

                    xk=(   0.49167,  -0.25500,   0.42104  )

     Band symmetry, C_1 (1)     point group:

     e(  1 -  1) =     -7.87777  eV     1   --> A              
     e(  2 -  2) =     -7.71364  eV     1   --> A              
     e(  3 -  3) =     -7.71259  eV     1   --> A              
     e(  4 -  4) =     -7.71106  eV     1   --> A              
     e(  5 -  5) =     -7.66192  eV     1   --> A              
     e(  6 -  6) =     -2.73583  eV     1   --> A              
     e(  7 -  7) =      0.10444  eV     1   --> A              
     e(  8 -  8) =      4.10581  eV     1   --> A              
     e(  9 -  9) =      4.11014  eV     1   --> A              
     e( 10 - 10) =      8.47811  eV     1   --> A              

 **************************************************************************

 **************************************************************************

                    xk=(   0.49583,  -0.27184,   0.41464  )

     Band symmetry, C_1 (1)     point group:

     e(  1 -  1) =     -7.87808  eV     1   --> A              
     e(  2 -  2) =     -7.71318  eV     1   --> A              
     e(  3 -  3) =     -7.71215  eV     1   --> A              
     e(  4 -  4) =     -7.71168  eV     1   --> A              
     e(  5 -  5) =     -7.66175  eV     1   --> A              
     e(  6 -  6) =     -2.73345  eV     1   --> A              
     e(  7 -  7) =      0.09656  eV     1   --> A              
     e(  8 -  8) =      4.12337  eV     1   --> A              
     e(  9 -  9) =      4.12439  eV     1   --> A              
     e( 10 - 10) =      8.44549  eV     1   --> A              

 **************************************************************************

 **************************************************************************

                    xk=(   0.50000,  -0.28868,   0.40825  )

     point group C_s (m)    
     there are  2 classes
     the character table:

       E     s    
A'     1.00  1.00
A''    1.00 -1.00

     the symmetry operations in each class and the name of the first element:

     E        1
                                                                 
     s        2
                                                                 

     Band symmetry, C_s (m)     point group:

     e(  1 -  1) =     -7.87826  eV     1   --> A'             
     e(  2 -  2) =     -7.71295  eV     1   --> A'             
     e(  3 -  4) =     -7.71202  eV     2   --> A'             
     e(  3 -  4) =     -7.71202  eV     2   --> A''            
     e(  5 -  5) =     -7.66170  eV     1   --> A''            
     e(  6 -  6) =     -2.73267  eV     1   --> A'             
     e(  7 -  7) =      0.09390  eV     1   --> A'             
     e(  8 -  9) =      4.12926  eV     2   --> A'             
     e(  8 -  9) =      4.12926  eV     2   --> A''            
     e( 10 - 10) =      8.43447  eV     1   --> A'             

 **************************************************************************

     BANDS        :     35.85s CPU     16.81s WALL


   This run was terminated on:   4: 3:17  19Dec2024            

=------------------------------------------------------------------------------=
   JOB DONE.
=------------------------------------------------------------------------------=
