
     Program PWSCF v.7.0 starts on 19Dec2024 at  4: 1: 5 

     This program is part of the open-source Quantum ESPRESSO suite
     for quantum simulation of materials; please cite
         "P. Giannozzi et al., J. Phys.:Condens. Matter 21 395502 (2009);
         "P. Giannozzi et al., J. Phys.:Condens. Matter 29 465901 (2017);
         "P. Giannozzi et al., J. Chem. Phys. 152 154105 (2020);
          URL http://www.quantum-espresso.org", 
     in publications or presentations arising from this work. More details at
     http://www.quantum-espresso.org/quote

     Parallel version (MPI & OpenMP), running on       2 processor cores
     Number of MPI processes:                 2
     Threads/MPI process:                     1

     MPI processes distributed on     1 nodes
     R & G space division:  proc/nbgrp/npool/nimage =       2
     181 MiB available memory on the printing compute node when the environment starts

     Reading input from pw.bands.in

     Current dimensions of program PWSCF are:
     Max number of different atomic species (ntypx) = 10
     Max number of k-points (npk) =  40000
     Max angular momentum in pseudopotentials (lmaxx) =  4

     Atomic positions and unit cell read from directory:
     ./outputs/gap.save/
     Atomic positions from file used, from input discarded

     file Ga.pbe-dn-kjpaw_psl.1.0.0.UPF: wavefunction(s)  4S renormalized
     file P.pbe-n-kjpaw_psl.1.0.0.UPF: wavefunction(s)  3S 3P renormalized

     IMPORTANT: XC functional enforced from input :
     Exchange-correlation= PBE
                           (   1   4   3   4   0   0   0)
     Any further DFT definition will be discarded
     Please, verify this is what you really want

     Message from routine setup:
     using ibrav=0 with symmetry is DISCOURAGED, use correct ibrav instead

     Subspace diagonalization in iterative solution of the eigenvalue problem:
     a serial algorithm will be used


     Parallelization info
     --------------------
     sticks:   dense  smooth     PW     G-vecs:    dense   smooth      PW
     Min         372     372    111                 6767     6767    1114
     Max         373     373    112                 6772     6772    1115
     Sum         745     745    223                13539    13539    2229

     Using Slab Decomposition



     bravais-lattice index     =            0
     lattice parameter (alat)  =       7.3577  a.u.
     unit-cell volume          =     281.6537 (a.u.)^3
     number of atoms/cell      =            2
     number of atomic types    =            2
     number of electrons       =        18.00
     number of Kohn-Sham states=           10
     kinetic-energy cutoff     =      50.0000  Ry
     charge density cutoff     =     200.0000  Ry
     Exchange-correlation= PBE
                           (   1   4   3   4   0   0   0)

     celldm(1)=   7.357724  celldm(2)=   0.000000  celldm(3)=   0.000000
     celldm(4)=   0.000000  celldm(5)=   0.000000  celldm(6)=   0.000000

     crystal axes: (cart. coord. in units of alat)
               a(1) = (   1.000000   0.000000   0.000000 )  
               a(2) = (   0.500000   0.866025   0.000000 )  
               a(3) = (   0.500000   0.288675   0.816497 )  

     reciprocal axes: (cart. coord. in units 2 pi/alat)
               b(1) = (  1.000000 -0.577350 -0.408248 )  
               b(2) = (  0.000000  1.154701 -0.408248 )  
               b(3) = (  0.000000  0.000000  1.224745 )  


     PseudoPot. # 1 for Ga read from file:
     ../Pseudopotentials/Ga.pbe-dn-kjpaw_psl.1.0.0.UPF
     MD5 check sum: 50ce49cbf7e0a40ad8623bf41840a268
     Pseudo is Projector augmented-wave + core cor, Zval = 13.0
     Generated using &quot;atomic&quot; code by A. Dal Corso  v.6.3
     Shape of augmentation charge: PSQ
     Using radial grid of 1205 points,  6 beta functions with: 
                l(1) =   0
                l(2) =   0
                l(3) =   1
                l(4) =   1
                l(5) =   2
                l(6) =   2
     Q(r) pseudized with 0 coefficients 


     PseudoPot. # 2 for P  read from file:
     ../Pseudopotentials/P.pbe-n-kjpaw_psl.1.0.0.UPF
     MD5 check sum: 06b8cad1975795032ee26009bb7624c7
     Pseudo is Projector augmented-wave + core cor, Zval =  5.0
     Generated using &quot;atomic&quot; code by A. Dal Corso  v.6.3
     Shape of augmentation charge: PSQ
     Using radial grid of 1147 points,  6 beta functions with: 
                l(1) =   0
                l(2) =   0
                l(3) =   1
                l(4) =   1
                l(5) =   2
                l(6) =   2
     Q(r) pseudized with 0 coefficients 


     atomic species   valence    mass     pseudopotential
        Ga            13.00    69.72300     Ga( 1.00)
        P              5.00    30.97300     P ( 1.00)

      6 Sym. Ops. (no inversion) found



   Cartesian axes

     site n.     atom                  positions (alat units)
         1           Ga  tau(   1) = (   0.0000000   0.0000000   0.0000000  )
         2           P   tau(   2) = (   0.5000000   0.2886751   0.2041241  )

     number of k points=   301  Marzari-Vanderbilt smearing, width (Ry)=  0.0050

     Number of k-points >= 100: set verbosity='high' to print them.

     Dense  grid:    13539 G-vectors     FFT dimensions: (  36,  36,  36)

     Estimated max dynamical RAM per process >      24.88 MB

     Estimated total dynamical RAM >      49.75 MB

     Check: negative core charge=   -0.000003

     The potential is recalculated from file :
     ./outputs/gap.save/charge-density

     Starting wfcs are   13 randomized atomic wfcs
     Checking if some PAW data can be deallocated... 

     Band Structure Calculation
     Davidson diagonalization with overlap

     ethr =  5.56E-11,  avg # of iterations = 36.5

     total cpu time spent up to now is       79.4 secs

     End of band structure calculation

     Number of k-points >= 100: set verbosity='high' to print the bands.

     Writing all to output data dir ./outputs/gap.save/

     init_run     :      1.01s CPU      1.26s WALL (       1 calls)
     electrons    :     83.80s CPU     77.78s WALL (       1 calls)

     Called by init_run:
     wfcinit      :      0.00s CPU      0.00s WALL (       1 calls)
     potinit      :      0.17s CPU      0.26s WALL (       1 calls)
     hinit0       :      0.75s CPU      0.85s WALL (       1 calls)

     Called by electrons:
     c_bands      :     83.79s CPU     77.77s WALL (       1 calls)
     v_of_rho     :      0.02s CPU      0.02s WALL (       1 calls)
     newd         :      0.03s CPU      0.09s WALL (       1 calls)
     PAW_pot      :      0.14s CPU      0.24s WALL (       1 calls)

     Called by c_bands:
     init_us_2    :      0.13s CPU      0.15s WALL (     301 calls)
     init_us_2:cp :      0.13s CPU      0.15s WALL (     301 calls)
     cegterg      :     79.63s CPU     72.80s WALL (     705 calls)

     Called by *egterg:
     cdiaghg      :      3.67s CPU    -10.23s WALL (   11294 calls)
     h_psi        :     63.04s CPU     68.88s WALL (   11999 calls)
     s_psi        :      3.00s CPU      3.30s WALL (   11999 calls)
     g_psi        :      1.07s CPU      1.17s WALL (   10993 calls)

     Called by h_psi:
     h_psi:calbec :      3.48s CPU      4.03s WALL (   11999 calls)
     vloc_psi     :     55.97s CPU     60.90s WALL (   11999 calls)
     add_vuspsi   :      3.32s CPU      3.65s WALL (   11999 calls)

     General routines
     calbec       :      3.44s CPU      4.00s WALL (   11999 calls)
     fft          :      0.39s CPU      0.45s WALL (      12 calls)
     fftw         :     49.54s CPU     64.41s WALL (  158908 calls)
     davcio       :      0.09s CPU      0.34s WALL (     602 calls)

     Parallel routines

     PWSCF        :   1m25.17s CPU   1m21.04s WALL


   This run was terminated on:   4: 2:26  19Dec2024            

=------------------------------------------------------------------------------=
   JOB DONE.
=------------------------------------------------------------------------------=
