
     Program PWSCF v.7.0 starts on 19Dec2024 at  4: 0:19 

     This program is part of the open-source Quantum ESPRESSO suite
     for quantum simulation of materials; please cite
         "P. Giannozzi et al., J. Phys.:Condens. Matter 21 395502 (2009);
         "P. Giannozzi et al., J. Phys.:Condens. Matter 29 465901 (2017);
         "P. Giannozzi et al., J. Chem. Phys. 152 154105 (2020);
          URL http://www.quantum-espresso.org", 
     in publications or presentations arising from this work. More details at
     http://www.quantum-espresso.org/quote

     Parallel version (MPI & OpenMP), running on       2 processor cores
     Number of MPI processes:                 2
     Threads/MPI process:                     1

     MPI processes distributed on     1 nodes
     R & G space division:  proc/nbgrp/npool/nimage =       2
     164 MiB available memory on the printing compute node when the environment starts

     Reading input from pw.scf.in

     Current dimensions of program PWSCF are:
     Max number of different atomic species (ntypx) = 10
     Max number of k-points (npk) =  40000
     Max angular momentum in pseudopotentials (lmaxx) =  4
     file Ga.pbe-dn-kjpaw_psl.1.0.0.UPF: wavefunction(s)  4S renormalized
     file P.pbe-n-kjpaw_psl.1.0.0.UPF: wavefunction(s)  3S 3P renormalized

     IMPORTANT: XC functional enforced from input :
     Exchange-correlation= PBE
                           (   1   4   3   4   0   0   0)
     Any further DFT definition will be discarded
     Please, verify this is what you really want

     Message from routine setup:
     using ibrav=0 with symmetry is DISCOURAGED, use correct ibrav instead

     Subspace diagonalization in iterative solution of the eigenvalue problem:
     a serial algorithm will be used


     Parallelization info
     --------------------
     sticks:   dense  smooth     PW     G-vecs:    dense   smooth      PW
     Min         372     372    111                 6767     6767    1114
     Max         373     373    112                 6772     6772    1115
     Sum         745     745    223                13539    13539    2229

     Using Slab Decomposition



     bravais-lattice index     =            0
     lattice parameter (alat)  =       7.3577  a.u.
     unit-cell volume          =     281.6537 (a.u.)^3
     number of atoms/cell      =            2
     number of atomic types    =            2
     number of electrons       =        18.00
     number of Kohn-Sham states=           13
     kinetic-energy cutoff     =      50.0000  Ry
     charge density cutoff     =     200.0000  Ry
     scf convergence threshold =      1.0E-08
     mixing beta               =       0.7000
     number of iterations used =            8  plain     mixing
     Exchange-correlation= PBE
                           (   1   4   3   4   0   0   0)

     celldm(1)=   7.357724  celldm(2)=   0.000000  celldm(3)=   0.000000
     celldm(4)=   0.000000  celldm(5)=   0.000000  celldm(6)=   0.000000

     crystal axes: (cart. coord. in units of alat)
               a(1) = (   1.000000   0.000000   0.000000 )  
               a(2) = (   0.500000   0.866025   0.000000 )  
               a(3) = (   0.500000   0.288675   0.816497 )  

     reciprocal axes: (cart. coord. in units 2 pi/alat)
               b(1) = (  1.000000 -0.577350 -0.408248 )  
               b(2) = (  0.000000  1.154701 -0.408248 )  
               b(3) = (  0.000000  0.000000  1.224745 )  


     PseudoPot. # 1 for Ga read from file:
     ../Pseudopotentials/Ga.pbe-dn-kjpaw_psl.1.0.0.UPF
     MD5 check sum: 50ce49cbf7e0a40ad8623bf41840a268
     Pseudo is Projector augmented-wave + core cor, Zval = 13.0
     Generated using &quot;atomic&quot; code by A. Dal Corso  v.6.3
     Shape of augmentation charge: PSQ
     Using radial grid of 1205 points,  6 beta functions with: 
                l(1) =   0
                l(2) =   0
                l(3) =   1
                l(4) =   1
                l(5) =   2
                l(6) =   2
     Q(r) pseudized with 0 coefficients 


     PseudoPot. # 2 for P  read from file:
     ../Pseudopotentials/P.pbe-n-kjpaw_psl.1.0.0.UPF
     MD5 check sum: 06b8cad1975795032ee26009bb7624c7
     Pseudo is Projector augmented-wave + core cor, Zval =  5.0
     Generated using &quot;atomic&quot; code by A. Dal Corso  v.6.3
     Shape of augmentation charge: PSQ
     Using radial grid of 1147 points,  6 beta functions with: 
                l(1) =   0
                l(2) =   0
                l(3) =   1
                l(4) =   1
                l(5) =   2
                l(6) =   2
     Q(r) pseudized with 0 coefficients 


     atomic species   valence    mass     pseudopotential
        Ga            13.00    69.72300     Ga( 1.00)
        P              5.00    30.97300     P ( 1.00)

      6 Sym. Ops. (no inversion) found



   Cartesian axes

     site n.     atom                  positions (alat units)
         1           Ga  tau(   1) = (   0.0000000   0.0000000   0.0000000  )
         2           P   tau(   2) = (   0.5000000   0.2886751   0.2041241  )

     number of k points=    44  Marzari-Vanderbilt smearing, width (Ry)=  0.0050
                       cart. coord. in units 2pi/alat
        k(    1) = (   0.0000000   0.0000000   0.0000000), wk =   0.0058309
        k(    2) = (   0.0000000   0.0000000   0.1749636), wk =   0.0116618
        k(    3) = (   0.0000000   0.0000000   0.3499271), wk =   0.0116618
        k(    4) = (   0.0000000   0.0000000   0.5248907), wk =   0.0116618
        k(    5) = (   0.0000000   0.1649572  -0.0583212), wk =   0.0349854
        k(    6) = (   0.0000000   0.1649572   0.1166424), wk =   0.0349854
        k(    7) = (   0.0000000   0.1649572   0.2916059), wk =   0.0349854
        k(    8) = (   0.0000000   0.1649572   0.4665695), wk =   0.0349854
        k(    9) = (   0.0000000   0.1649572  -0.5832118), wk =   0.0349854
        k(   10) = (   0.0000000   0.1649572  -0.4082483), wk =   0.0349854
        k(   11) = (   0.0000000   0.1649572  -0.2332847), wk =   0.0349854
        k(   12) = (   0.0000000   0.3299144  -0.1166424), wk =   0.0349854
        k(   13) = (   0.0000000   0.3299144   0.0583212), wk =   0.0349854
        k(   14) = (   0.0000000   0.3299144   0.2332847), wk =   0.0349854
        k(   15) = (   0.0000000   0.3299144   0.4082483), wk =   0.0349854
        k(   16) = (   0.0000000   0.3299144  -0.6415330), wk =   0.0349854
        k(   17) = (   0.0000000   0.3299144  -0.4665695), wk =   0.0349854
        k(   18) = (   0.0000000   0.3299144  -0.2916059), wk =   0.0349854
        k(   19) = (   0.0000000   0.4948717  -0.1749636), wk =   0.0349854
        k(   20) = (   0.0000000   0.4948717   0.0000000), wk =   0.0349854
        k(   21) = (   0.0000000   0.4948717   0.1749636), wk =   0.0349854
        k(   22) = (   0.0000000   0.4948717   0.3499271), wk =   0.0349854
        k(   23) = (   0.0000000   0.4948717  -0.6998542), wk =   0.0349854
        k(   24) = (   0.0000000   0.4948717  -0.5248907), wk =   0.0349854
        k(   25) = (   0.0000000   0.4948717  -0.3499271), wk =   0.0349854
        k(   26) = (   0.1428571   0.2474358  -0.1749636), wk =   0.0699708
        k(   27) = (   0.1428571   0.2474358   0.0000000), wk =   0.0349854
        k(   28) = (   0.1428571   0.2474358   0.3499271), wk =   0.0699708
        k(   29) = (   0.1428571   0.2474358  -0.6998542), wk =   0.0699708
        k(   30) = (   0.1428571   0.4123930  -0.2332847), wk =   0.0699708
        k(   31) = (   0.1428571   0.4123930  -0.0583212), wk =   0.0699708
        k(   32) = (   0.1428571   0.4123930   0.1166424), wk =   0.0699708
        k(   33) = (   0.1428571   0.4123930   0.2916059), wk =   0.0699708
        k(   34) = (   0.1428571   0.4123930  -0.7581754), wk =   0.0699708
        k(   35) = (   0.1428571   0.4123930  -0.5832118), wk =   0.0699708
        k(   36) = (   0.1428571   0.4123930  -0.4082483), wk =   0.0699708
        k(   37) = (   0.1428571  -0.5773503   0.1166424), wk =   0.0699708
        k(   38) = (   0.1428571  -0.5773503   0.4665695), wk =   0.0699708
        k(   39) = (   0.1428571  -0.5773503   0.6415330), wk =   0.0699708
        k(   40) = (   0.1428571  -0.5773503  -0.4082483), wk =   0.0349854
        k(   41) = (   0.2857143  -0.6598289   0.0583212), wk =   0.0699708
        k(   42) = (   0.2857143  -0.6598289   0.2332847), wk =   0.0699708
        k(   43) = (   0.2857143  -0.6598289   0.4082483), wk =   0.0349854
        k(   44) = (   0.2857143  -0.6598289  -0.2916059), wk =   0.0699708

     Dense  grid:    13539 G-vectors     FFT dimensions: (  36,  36,  36)

     Estimated max dynamical RAM per process >      35.64 MB

     Estimated total dynamical RAM >      71.27 MB

     Check: negative core charge=   -0.000003

     Initial potential from superposition of free atoms

     starting charge      17.9969, renormalised to      18.0000
     Starting wfcs are   13 randomized atomic wfcs
     Checking if some PAW data can be deallocated... 

     total cpu time spent up to now is        2.4 secs

     per-process dynamical memory:    37.7 Mb

     Self-consistent Calculation

     iteration #  1     ecut=    50.00 Ry     beta= 0.70
     Davidson diagonalization with overlap
     ethr =  1.00E-02,  avg # of iterations =  3.9

     Threshold (ethr) on eigenvalues was too large:
     Diagonalizing with lowered threshold

     Davidson diagonalization with overlap
     ethr =  3.76E-04,  avg # of iterations =  5.0

     total cpu time spent up to now is        6.7 secs

     total energy              =    -333.50217279 Ry
     estimated scf accuracy    <       0.07260166 Ry

     iteration #  2     ecut=    50.00 Ry     beta= 0.70
     Davidson diagonalization with overlap
     ethr =  4.03E-04,  avg # of iterations =  2.0

     total cpu time spent up to now is        8.4 secs

     total energy              =    -333.51750013 Ry
     estimated scf accuracy    <       0.01918889 Ry

     iteration #  3     ecut=    50.00 Ry     beta= 0.70
     Davidson diagonalization with overlap
     ethr =  1.07E-04,  avg # of iterations =  2.0

     total cpu time spent up to now is        9.9 secs

     total energy              =    -333.52238971 Ry
     estimated scf accuracy    <       0.00074834 Ry

     iteration #  4     ecut=    50.00 Ry     beta= 0.70
     Davidson diagonalization with overlap
     ethr =  4.16E-06,  avg # of iterations =  4.0

     total cpu time spent up to now is       12.9 secs

     total energy              =    -333.52406082 Ry
     estimated scf accuracy    <       0.00290169 Ry

     iteration #  5     ecut=    50.00 Ry     beta= 0.70
     Davidson diagonalization with overlap
     ethr =  4.16E-06,  avg # of iterations =  1.0

     total cpu time spent up to now is       14.7 secs

     total energy              =    -333.52259978 Ry
     estimated scf accuracy    <       0.00398498 Ry

     iteration #  6     ecut=    50.00 Ry     beta= 0.70
     Davidson diagonalization with overlap
     ethr =  4.16E-06,  avg # of iterations =  4.2

     total cpu time spent up to now is       17.3 secs

     total energy              =    -333.52308427 Ry
     estimated scf accuracy    <       0.00226381 Ry

     iteration #  7     ecut=    50.00 Ry     beta= 0.70
     Davidson diagonalization with overlap
     ethr =  4.16E-06,  avg # of iterations =  3.5

     total cpu time spent up to now is       19.6 secs

     total energy              =    -333.52329537 Ry
     estimated scf accuracy    <       0.00000642 Ry

     iteration #  8     ecut=    50.00 Ry     beta= 0.70
     Davidson diagonalization with overlap
     ethr =  3.56E-08,  avg # of iterations =  4.4

     total cpu time spent up to now is       21.9 secs

     total energy              =    -333.52330022 Ry
     estimated scf accuracy    <       0.00000213 Ry

     iteration #  9     ecut=    50.00 Ry     beta= 0.70
     Davidson diagonalization with overlap
     ethr =  1.18E-08,  avg # of iterations =  2.6

     total cpu time spent up to now is       23.7 secs

     total energy              =    -333.52330041 Ry
     estimated scf accuracy    <       0.00000021 Ry

     iteration # 10     ecut=    50.00 Ry     beta= 0.70
     Davidson diagonalization with overlap
     ethr =  1.15E-09,  avg # of iterations =  4.5

     total cpu time spent up to now is       26.2 secs

     total energy              =    -333.52330058 Ry
     estimated scf accuracy    <       0.00000002 Ry

     iteration # 11     ecut=    50.00 Ry     beta= 0.70
     Davidson diagonalization with overlap
     ethr =  9.06E-11,  avg # of iterations =  2.7

     total cpu time spent up to now is       13.7 secs

     total energy              =    -333.52330058 Ry
     estimated scf accuracy    <       0.00000002 Ry

     iteration # 12     ecut=    50.00 Ry     beta= 0.70
     Davidson diagonalization with overlap
     ethr =  9.06E-11,  avg # of iterations =  1.0

     total cpu time spent up to now is       15.4 secs

     End of self-consistent calculation

          k = 0.0000 0.0000 0.0000 (  1687 PWs)   bands (ev):

    -7.7720  -7.7720  -7.7720  -7.6822  -7.6822  -5.5613   6.7182   6.7182
     6.7182   8.2860  10.6008  10.6008  10.6008

          k = 0.0000 0.0000 0.1750 (  1690 PWs)   bands (ev):

    -7.7873  -7.7666  -7.7666  -7.6822  -7.6822  -5.3083   4.7710   6.4414
     6.4414   9.0065  11.0210  11.0210  11.3221

          k = 0.0000 0.0000 0.3499 (  1670 PWs)   bands (ev):

    -7.8187  -7.7563  -7.7563  -7.6802  -7.6802  -4.6081   2.3203   5.9702
     5.9702   8.6488  11.4987  11.4987  13.4735

          k = 0.0000 0.0000 0.5249 (  1679 PWs)   bands (ev):

    -7.8416  -7.7503  -7.7503  -7.6762  -7.6762  -3.7645   0.5366   5.6764
     5.6764   8.3349  11.4638  11.4638  14.8856

          k = 0.0000 0.1650-0.0583 (  1690 PWs)   bands (ev):

    -7.7873  -7.7666  -7.7666  -7.6822  -7.6822  -5.3083   4.7710   6.4414
     6.4414   9.0065  11.0210  11.0210  11.3221

          k = 0.0000 0.1650 0.1166 (  1691 PWs)   bands (ev):

    -7.7972  -7.7614  -7.7614  -7.6870  -7.6786  -5.2242   4.8403   5.9540
     5.9540   9.5860  10.2000  11.7432  11.7432

          k = 0.0000 0.1650 0.2916 (  1673 PWs)   bands (ev):

    -7.8217  -7.7523  -7.7501  -7.6900  -7.6752  -4.6689   2.9607   5.3716
     5.4412   9.5568  10.6845  12.4421  12.5115

          k = 0.0000 0.1650 0.4666 (  1669 PWs)   bands (ev):

    -7.8422  -7.7473  -7.7428  -7.6866  -7.6731  -3.8242   1.0533   4.7133
     5.2273   9.3745  11.1985  12.4532  13.3818

          k = 0.0000 0.1650-0.5832 (  1693 PWs)   bands (ev):

    -7.8471  -7.7465  -7.7426  -7.6802  -7.6765  -3.4349   0.3846   4.3322
     5.3857   9.3435  11.3035  12.1191  14.9113

          k = 0.0000 0.1650-0.4082 (  1677 PWs)   bands (ev):

    -7.8330  -7.7491  -7.7491  -7.6832  -7.6778  -4.1175   1.6311   4.3932
     5.8478   9.5689  11.6136  11.8256  13.4040

          k = 0.0000 0.1650-0.2333 (  1686 PWs)   bands (ev):

    -7.8079  -7.7604  -7.7565  -7.6851  -7.6791  -4.9039   3.5225   5.1225
     6.3664   9.6852  11.1534  11.2371  12.4060

          k = 0.0000 0.3299-0.1166 (  1670 PWs)   bands (ev):

    -7.8187  -7.7563  -7.7563  -7.6802  -7.6802  -4.6081   2.3203   5.9702
     5.9702   8.6488  11.4987  11.4987  13.4735

          k = 0.0000 0.3299 0.0583 (  1673 PWs)   bands (ev):

    -7.8217  -7.7523  -7.7501  -7.6900  -7.6752  -4.6689   2.9607   5.3716
     5.4412   9.5568  10.6845  12.4421  12.5115

          k = 0.0000 0.3299 0.2333 (  1696 PWs)   bands (ev):

    -7.8438  -7.7366  -7.7366  -7.7002  -7.6703  -4.2793   2.4765   4.8535
     4.8535   8.7203  10.0852  13.9651  13.9651

          k = 0.0000 0.3299 0.4082 (  1679 PWs)   bands (ev):

    -7.8588  -7.7306  -7.7271  -7.7021  -7.6680  -3.5508   1.2101   3.9948
     4.5828   8.9344  10.2171  13.8331  14.4565

          k = 0.0000 0.3299-0.6415 (  1686 PWs)   bands (ev):

    -7.8588  -7.7355  -7.7266  -7.6945  -7.6726  -2.9825   0.4290   3.1153
     4.7305   9.1379  11.9939  13.8010  13.9847

          k = 0.0000 0.3299-0.4666 (  1682 PWs)   bands (ev):

    -7.8479  -7.7426  -7.7351  -7.6842  -7.6807  -3.3685   0.9118   3.0696
     5.2411   9.6049  12.6044  13.0876  13.5260

          k = 0.0000 0.3299-0.2916 (  1677 PWs)   bands (ev):

    -7.8330  -7.7491  -7.7491  -7.6832  -7.6778  -4.1175   1.6311   4.3932
     5.8478   9.5689  11.6136  11.8256  13.4040

          k = 0.0000 0.4949-0.1750 (  1679 PWs)   bands (ev):

    -7.8416  -7.7503  -7.7503  -7.6762  -7.6762  -3.7645   0.5366   5.6764
     5.6764   8.3349  11.4638  11.4638  14.8856

          k = 0.0000 0.4949 0.0000 (  1669 PWs)   bands (ev):

    -7.8422  -7.7473  -7.7428  -7.6866  -7.6731  -3.8242   1.0533   4.7133
     5.2273   9.3745  11.1985  12.4532  13.3818

          k = 0.0000 0.4949 0.1750 (  1679 PWs)   bands (ev):

    -7.8588  -7.7306  -7.7271  -7.7021  -7.6680  -3.5508   1.2101   3.9948
     4.5828   8.9344  10.2171  13.8331  14.4565

          k = 0.0000 0.4949 0.3499 (  1692 PWs)   bands (ev):

    -7.8749  -7.7160  -7.7160  -7.7120  -7.6636  -3.0350   0.4911   4.2126
     4.2126   8.3584   8.8625  16.3818  16.3818

          k = 0.0000 0.4949-0.6999 (  1684 PWs)   bands (ev):

    -7.8734  -7.7211  -7.7157  -7.7072  -7.6658  -2.7151   0.1595   3.4827
     4.2684   8.6418   9.7298  15.8567  16.0234

          k = 0.0000 0.4949-0.5249 (  1686 PWs)   bands (ev):

    -7.8588  -7.7355  -7.7266  -7.6945  -7.6726  -2.9825   0.4290   3.1153
     4.7305   9.1379  11.9939  13.8010  13.9847

          k = 0.0000 0.4949-0.3499 (  1693 PWs)   bands (ev):

    -7.8471  -7.7465  -7.7426  -7.6802  -7.6765  -3.4349   0.3846   4.3322
     5.3857   9.3435  11.3035  12.1191  14.9113

          k = 0.1429 0.2474-0.1750 (  1673 PWs)   bands (ev):

    -7.8217  -7.7523  -7.7501  -7.6900  -7.6752  -4.6689   2.9607   5.3716
     5.4412   9.5568  10.6845  12.4421  12.5115

          k = 0.1429 0.2474 0.0000 (  1686 PWs)   bands (ev):

    -7.8079  -7.7604  -7.7565  -7.6851  -7.6791  -4.9039   3.5225   5.1225
     6.3664   9.6852  11.1534  11.2371  12.4060

          k = 0.1429 0.2474 0.3499 (  1679 PWs)   bands (ev):

    -7.8411  -7.7442  -7.7384  -7.6932  -7.6729  -4.0202   1.8637   4.0301
     5.1853  10.0786  10.8270  12.0119  13.7786

          k = 0.1429 0.2474-0.6999 (  1682 PWs)   bands (ev):

    -7.8521  -7.7426  -7.7303  -7.6900  -7.6746  -3.2529   0.6729   3.4399
     4.7175  10.2943  11.1585  12.6764  14.3804

          k = 0.1429 0.4124-0.2333 (  1669 PWs)   bands (ev):

    -7.8422  -7.7473  -7.7428  -7.6866  -7.6731  -3.8242   1.0533   4.7133
     5.2273   9.3745  11.1985  12.4532  13.3818

          k = 0.1429 0.4124-0.0583 (  1677 PWs)   bands (ev):

    -7.8330  -7.7491  -7.7490  -7.6832  -7.6778  -4.1175   1.6311   4.3932
     5.8478   9.5689  11.6136  11.8256  13.4040

          k = 0.1429 0.4124 0.1166 (  1679 PWs)   bands (ev):

    -7.8411  -7.7442  -7.7384  -7.6932  -7.6729  -4.0202   1.8637   4.0301
     5.1853  10.0786  10.8270  12.0119  13.7786

          k = 0.1429 0.4124 0.2916 (  1679 PWs)   bands (ev):

    -7.8588  -7.7306  -7.7271  -7.7021  -7.6680  -3.5508   1.2101   3.9948
     4.5828   8.9344  10.2171  13.8331  14.4565

          k = 0.1429 0.4124-0.7582 (  1676 PWs)   bands (ev):

    -7.8655  -7.7296  -7.7194  -7.7017  -7.6689  -2.9246   0.4795   3.5440
     3.9411   9.7795  10.1274  13.5815  15.7060

          k = 0.1429 0.4124-0.5832 (  1671 PWs)   bands (ev):

    -7.8603  -7.7370  -7.7200  -7.6951  -7.6742  -2.7531   0.3486   2.9842
     4.0277  10.2357  11.9511  13.0038  13.7096

          k = 0.1429 0.4124-0.4082 (  1682 PWs)   bands (ev):

    -7.8521  -7.7426  -7.7303  -7.6900  -7.6746  -3.2529   0.6729   3.4399
     4.7175  10.2943  11.1585  12.6764  14.3804

          k = 0.1429-0.5774 0.1166 (  1693 PWs)   bands (ev):

    -7.8471  -7.7465  -7.7426  -7.6802  -7.6765  -3.4349   0.3846   4.3322
     5.3857   9.3435  11.3035  12.1191  14.9113

          k = 0.1429-0.5774 0.4666 (  1682 PWs)   bands (ev):

    -7.8521  -7.7426  -7.7303  -7.6900  -7.6746  -3.2529   0.6729   3.4399
     4.7175  10.2943  11.1585  12.6764  14.3804

          k = 0.1429-0.5774 0.6415 (  1676 PWs)   bands (ev):

    -7.8655  -7.7296  -7.7194  -7.7017  -7.6689  -2.9246   0.4795   3.5440
     3.9411   9.7795  10.1274  13.5815  15.7060

          k = 0.1429-0.5774-0.4082 (  1684 PWs)   bands (ev):

    -7.8734  -7.7211  -7.7157  -7.7072  -7.6658  -2.7151   0.1595   3.4827
     4.2684   8.6418   9.7298  15.8567  16.0234

          k = 0.2857-0.6598 0.0583 (  1686 PWs)   bands (ev):

    -7.8588  -7.7355  -7.7266  -7.6945  -7.6726  -2.9825   0.4290   3.1153
     4.7305   9.1379  11.9939  13.8010  13.9847

          k = 0.2857-0.6598 0.2333 (  1682 PWs)   bands (ev):

    -7.8521  -7.7426  -7.7303  -7.6900  -7.6746  -3.2529   0.6729   3.4399
     4.7175  10.2943  11.1585  12.6764  14.3804

          k = 0.2857-0.6598 0.4082 (  1682 PWs)   bands (ev):

    -7.8479  -7.7426  -7.7351  -7.6842  -7.6807  -3.3685   0.9118   3.0696
     5.2411   9.6049  12.6044  13.0876  13.5260

          k = 0.2857-0.6598-0.2916 (  1671 PWs)   bands (ev):

    -7.8603  -7.7370  -7.7200  -7.6951  -7.6742  -2.7531   0.3486   2.9842
     4.0277  10.2357  11.9511  13.0038  13.7096

     the Fermi energy is     7.4556 ev

!    total energy              =    -333.52330058 Ry

     total all-electron energy =     -4572.351401 Ry
     estimated scf accuracy    <          4.7E-09 Ry
     smearing contrib. (-TS)   =       0.00000000 Ry
     internal energy E=F+TS    =    -333.52330058 Ry

     The total energy is F=E-TS. E is the sum of the following terms:
     one-electron contribution =    -115.89712495 Ry
     hartree contribution      =      73.76481087 Ry
     xc contribution           =     -42.57248135 Ry
     ewald contribution        =     -95.49998523 Ry
     one-center paw contrib.   =    -153.31851992 Ry

     convergence has been achieved in  12 iterations

     Forces acting on atoms (cartesian axes, Ry/au):

     atom    1 type  1   force =     0.00000000    0.00000000    0.00000044
     atom    2 type  2   force =     0.00000000    0.00000000   -0.00000044

     Total force =     0.000001     Total SCF correction =     0.000001
     SCF correction compared to forces is large: reduce conv_thr to get better values


     Computing stress (Cartesian axis) and pressure

          total   stress  (Ry/bohr**3)                   (kbar)     P=       -0.25
  -0.00000171   0.00000000   0.00000000           -0.25        0.00        0.00
   0.00000000  -0.00000171   0.00000000            0.00       -0.25        0.00
   0.00000000  -0.00000000  -0.00000170            0.00       -0.00       -0.25


     Writing all to output data dir ./outputs/gap.save/

     init_run     :      1.25s CPU      1.97s WALL (       1 calls)
     electrons    :     23.41s CPU     13.00s WALL (       1 calls)
     forces       :      0.19s CPU      0.25s WALL (       1 calls)
     stress       :      0.95s CPU      0.95s WALL (       1 calls)

     Called by init_run:
     wfcinit      :      0.44s CPU      0.72s WALL (       1 calls)
     potinit      :      0.17s CPU      0.22s WALL (       1 calls)
     hinit0       :      0.57s CPU      0.89s WALL (       1 calls)

     Called by electrons:
     c_bands      :     17.49s CPU      5.74s WALL (      13 calls)
     sum_band     :      3.48s CPU      4.42s WALL (      13 calls)
     v_of_rho     :      0.14s CPU      0.17s WALL (      13 calls)
     newd         :      0.58s CPU      0.69s WALL (      13 calls)
     PAW_pot      :      1.85s CPU      2.04s WALL (      13 calls)
     mix_rho      :      0.02s CPU      0.04s WALL (      13 calls)

     Called by c_bands:
     init_us_2    :      0.40s CPU      0.48s WALL (    1276 calls)
     init_us_2:cp :      0.39s CPU      0.48s WALL (    1276 calls)
     cegterg      :     16.70s CPU      4.83s WALL (     572 calls)

     Called by *egterg:
     cdiaghg      :      0.75s CPU      0.96s WALL (    2322 calls)
     h_psi        :     13.67s CPU      1.42s WALL (    2410 calls)
     s_psi        :      0.61s CPU      0.69s WALL (    2410 calls)
     g_psi        :      0.16s CPU      0.18s WALL (    1794 calls)

     Called by h_psi:
     h_psi:calbec :      0.71s CPU      0.83s WALL (    2410 calls)
     vloc_psi     :     12.27s CPU     -0.18s WALL (    2410 calls)
     add_vuspsi   :      0.64s CPU      0.71s WALL (    2410 calls)

     General routines
     calbec       :      1.12s CPU      1.31s WALL (    3202 calls)
     fft          :      0.43s CPU      0.63s WALL (     169 calls)
     ffts         :      0.00s CPU      0.01s WALL (      13 calls)
     fftw         :     12.76s CPU     15.00s WALL (   49784 calls)

     Parallel routines

     PWSCF        :     26.14s CPU     16.89s WALL


   This run was terminated on:   4: 0:36  19Dec2024            

=------------------------------------------------------------------------------=
   JOB DONE.
=------------------------------------------------------------------------------=
