
     Program PWSCF v.7.0 starts on 12Dec2024 at  6:41: 3 

     This program is part of the open-source Quantum ESPRESSO suite
     for quantum simulation of materials; please cite
         "P. Giannozzi et al., J. Phys.:Condens. Matter 21 395502 (2009);
         "P. Giannozzi et al., J. Phys.:Condens. Matter 29 465901 (2017);
         "P. Giannozzi et al., J. Chem. Phys. 152 154105 (2020);
          URL http://www.quantum-espresso.org", 
     in publications or presentations arising from this work. More details at
     http://www.quantum-espresso.org/quote

     Parallel version (MPI & OpenMP), running on       2 processor cores
     Number of MPI processes:                 1
     Threads/MPI process:                     2

     MPI processes distributed on     1 nodes
     160 MiB available memory on the printing compute node when the environment starts

     Reading input from basic.in

     Current dimensions of program PWSCF are:
     Max number of different atomic species (ntypx) = 10
     Max number of k-points (npk) =  40000
     Max angular momentum in pseudopotentials (lmaxx) =  4
     file In.pbe-dn-kjpaw_psl.1.0.0.UPF: wavefunction(s)  5S 5P 4D renormalized

     IMPORTANT: XC functional enforced from input :
     Exchange-correlation= PBE
                           (   1   4   3   4   0   0   0)
     Any further DFT definition will be discarded
     Please, verify this is what you really want

     Message from routine setup:
     using ibrav=0 with symmetry is DISCOURAGED, use correct ibrav instead

     Subspace diagonalization in iterative solution of the eigenvalue problem:
     a serial algorithm will be used


     G-vector sticks info
     --------------------
     sticks:   dense  smooth     PW     G-vecs:    dense   smooth      PW
     Sum         955     955    283                19027    19027    3119

     Using Slab Decomposition



     bravais-lattice index     =            0
     lattice parameter (alat)  =       8.2599  a.u.
     unit-cell volume          =     398.4878 (a.u.)^3
     number of atoms/cell      =            2
     number of atomic types    =            2
     number of electrons       =        18.00
     number of Kohn-Sham states=           13
     kinetic-energy cutoff     =      50.0000  Ry
     charge density cutoff     =     200.0000  Ry
     scf convergence threshold =      1.0E-08
     mixing beta               =       0.7000
     number of iterations used =            8  plain     mixing
     Exchange-correlation= PBE
                           (   1   4   3   4   0   0   0)

     celldm(1)=   8.259936  celldm(2)=   0.000000  celldm(3)=   0.000000
     celldm(4)=   0.000000  celldm(5)=   0.000000  celldm(6)=   0.000000

     crystal axes: (cart. coord. in units of alat)
               a(1) = (   1.000000   0.000000   0.000000 )  
               a(2) = (   0.500000   0.866025   0.000000 )  
               a(3) = (   0.500000   0.288675   0.816497 )  

     reciprocal axes: (cart. coord. in units 2 pi/alat)
               b(1) = (  1.000000 -0.577350 -0.408248 )  
               b(2) = (  0.000000  1.154701 -0.408248 )  
               b(3) = (  0.000000  0.000000  1.224745 )  


     PseudoPot. # 1 for As read from file:
     ./As.pbe-n-kjpaw_psl.1.0.0.UPF
     MD5 check sum: 21b474db91924651be503153fb2dbf55
     Pseudo is Projector augmented-wave + core cor, Zval =  5.0
     Generated using &quot;atomic&quot; code by A. Dal Corso  v.6.3
     Shape of augmentation charge: PSQ
     Using radial grid of 1209 points,  4 beta functions with: 
                l(1) =   0
                l(2) =   0
                l(3) =   1
                l(4) =   1
     Q(r) pseudized with 0 coefficients 


     PseudoPot. # 2 for In read from file:
     ./In.pbe-dn-kjpaw_psl.1.0.0.UPF
     MD5 check sum: 235b15e6a7fdfd96486e0ecdcb5b12c6
     Pseudo is Projector augmented-wave + core cor, Zval = 13.0
     Generated using &quot;atomic&quot; code by A. Dal Corso  v.6.3
     Shape of augmentation charge: PSQ
     Using radial grid of 1241 points,  6 beta functions with: 
                l(1) =   0
                l(2) =   0
                l(3) =   1
                l(4) =   1
                l(5) =   2
                l(6) =   2
     Q(r) pseudized with 0 coefficients 


     atomic species   valence    mass     pseudopotential
        As             5.00    74.92100     As( 1.00)
        In            13.00   114.81800     In( 1.00)

      6 Sym. Ops. (no inversion) found



   Cartesian axes

     site n.     atom                  positions (alat units)
         1           In  tau(   1) = (   0.5000000   0.2886751   0.2041241  )
         2           As  tau(   2) = (   0.0000000   0.0000000   0.0000000  )

     number of k points=    44  Marzari-Vanderbilt smearing, width (Ry)=  0.0050
                       cart. coord. in units 2pi/alat
        k(    1) = (   0.0000000   0.0000000   0.0000000), wk =   0.0058309
        k(    2) = (   0.0000000   0.0000000   0.1749636), wk =   0.0116618
        k(    3) = (   0.0000000   0.0000000   0.3499271), wk =   0.0116618
        k(    4) = (   0.0000000   0.0000000   0.5248907), wk =   0.0116618
        k(    5) = (   0.0000000   0.1649572  -0.0583212), wk =   0.0349854
        k(    6) = (   0.0000000   0.1649572   0.1166424), wk =   0.0349854
        k(    7) = (   0.0000000   0.1649572   0.2916059), wk =   0.0349854
        k(    8) = (   0.0000000   0.1649572   0.4665695), wk =   0.0349854
        k(    9) = (   0.0000000   0.1649572  -0.5832118), wk =   0.0349854
        k(   10) = (   0.0000000   0.1649572  -0.4082483), wk =   0.0349854
        k(   11) = (   0.0000000   0.1649572  -0.2332847), wk =   0.0349854
        k(   12) = (   0.0000000   0.3299144  -0.1166424), wk =   0.0349854
        k(   13) = (   0.0000000   0.3299144   0.0583212), wk =   0.0349854
        k(   14) = (   0.0000000   0.3299144   0.2332847), wk =   0.0349854
        k(   15) = (   0.0000000   0.3299144   0.4082483), wk =   0.0349854
        k(   16) = (   0.0000000   0.3299144  -0.6415330), wk =   0.0349854
        k(   17) = (   0.0000000   0.3299144  -0.4665695), wk =   0.0349854
        k(   18) = (   0.0000000   0.3299144  -0.2916059), wk =   0.0349854
        k(   19) = (   0.0000000   0.4948717  -0.1749636), wk =   0.0349854
        k(   20) = (   0.0000000   0.4948717   0.0000000), wk =   0.0349854
        k(   21) = (   0.0000000   0.4948717   0.1749636), wk =   0.0349854
        k(   22) = (   0.0000000   0.4948717   0.3499271), wk =   0.0349854
        k(   23) = (   0.0000000   0.4948717  -0.6998542), wk =   0.0349854
        k(   24) = (   0.0000000   0.4948717  -0.5248907), wk =   0.0349854
        k(   25) = (   0.0000000   0.4948717  -0.3499271), wk =   0.0349854
        k(   26) = (   0.1428571   0.2474358  -0.1749636), wk =   0.0699708
        k(   27) = (   0.1428571   0.2474358   0.0000000), wk =   0.0349854
        k(   28) = (   0.1428571   0.2474358   0.3499271), wk =   0.0699708
        k(   29) = (   0.1428571   0.2474358  -0.6998542), wk =   0.0699708
        k(   30) = (   0.1428571   0.4123930  -0.2332847), wk =   0.0699708
        k(   31) = (   0.1428571   0.4123930  -0.0583212), wk =   0.0699708
        k(   32) = (   0.1428571   0.4123930   0.1166424), wk =   0.0699708
        k(   33) = (   0.1428571   0.4123930   0.2916059), wk =   0.0699708
        k(   34) = (   0.1428571   0.4123930  -0.7581754), wk =   0.0699708
        k(   35) = (   0.1428571   0.4123930  -0.5832118), wk =   0.0699708
        k(   36) = (   0.1428571   0.4123930  -0.4082483), wk =   0.0699708
        k(   37) = (   0.1428571  -0.5773503   0.1166424), wk =   0.0699708
        k(   38) = (   0.1428571  -0.5773503   0.4665695), wk =   0.0699708
        k(   39) = (   0.1428571  -0.5773503   0.6415330), wk =   0.0699708
        k(   40) = (   0.1428571  -0.5773503  -0.4082483), wk =   0.0349854
        k(   41) = (   0.2857143  -0.6598289   0.0583212), wk =   0.0699708
        k(   42) = (   0.2857143  -0.6598289   0.2332847), wk =   0.0699708
        k(   43) = (   0.2857143  -0.6598289   0.4082483), wk =   0.0349854
        k(   44) = (   0.2857143  -0.6598289  -0.2916059), wk =   0.0699708

     Dense  grid:    19027 G-vectors     FFT dimensions: (  40,  40,  40)

     Estimated max dynamical RAM per process >      95.69 MB

     Check: negative core charge=   -0.000003

     Initial potential from superposition of free atoms

     starting charge      17.9960, renormalised to      18.0000
     Starting wfcs are   13 randomized atomic wfcs
     Checking if some PAW data can be deallocated... 

     total cpu time spent up to now is        8.9 secs

     per-process dynamical memory:    47.2 Mb

     Self-consistent Calculation

     iteration #  1     ecut=    50.00 Ry     beta= 0.70
     Davidson diagonalization with overlap
     ethr =  1.00E-02,  avg # of iterations =  3.6

     Threshold (ethr) on eigenvalues was too large:
     Diagonalizing with lowered threshold

     Davidson diagonalization with overlap
     ethr =  3.82E-04,  avg # of iterations =  1.9

     total cpu time spent up to now is       14.8 secs

     total energy              =    -586.77040052 Ry
     estimated scf accuracy    <       0.06961228 Ry

     iteration #  2     ecut=    50.00 Ry     beta= 0.70
     Davidson diagonalization with overlap
     ethr =  3.87E-04,  avg # of iterations =  2.0

     total cpu time spent up to now is       16.9 secs

     total energy              =    -586.78624048 Ry
     estimated scf accuracy    <       0.02530174 Ry

     iteration #  3     ecut=    50.00 Ry     beta= 0.70
     Davidson diagonalization with overlap
     ethr =  1.41E-04,  avg # of iterations =  2.0

     total cpu time spent up to now is       80.8 secs

     total energy              =    -586.79234416 Ry
     estimated scf accuracy    <       0.00056466 Ry

     iteration #  4     ecut=    50.00 Ry     beta= 0.70
     Davidson diagonalization with overlap
     ethr =  3.14E-06,  avg # of iterations =  3.5

     total cpu time spent up to now is       85.4 secs

     total energy              =    -586.79243714 Ry
     estimated scf accuracy    <       0.00001607 Ry

     iteration #  5     ecut=    50.00 Ry     beta= 0.70
     Davidson diagonalization with overlap
     ethr =  8.93E-08,  avg # of iterations =  2.0

     total cpu time spent up to now is       88.6 secs

     total energy              =    -586.79244027 Ry
     estimated scf accuracy    <       0.00000045 Ry

     iteration #  6     ecut=    50.00 Ry     beta= 0.70
     Davidson diagonalization with overlap
     ethr =  2.48E-09,  avg # of iterations =  2.7

     total cpu time spent up to now is       96.1 secs

     total energy              =    -586.79244049 Ry
     estimated scf accuracy    <       0.00000007 Ry

     iteration #  7     ecut=    50.00 Ry     beta= 0.70
     Davidson diagonalization with overlap
     ethr =  4.08E-10,  avg # of iterations =  2.0

     total cpu time spent up to now is      159.3 secs

     End of self-consistent calculation

          k = 0.0000 0.0000 0.0000 (  2421 PWs)   bands (ev):

    -8.3838  -8.3838  -8.3838  -8.2849  -8.2849  -5.5558   5.3748   5.9063
     5.9063   5.9063   9.7723   9.7723   9.7723

          k = 0.0000 0.0000 0.1750 (  2379 PWs)   bands (ev):

    -8.4018  -8.3775  -8.3775  -8.2842  -8.2842  -5.3711   3.7229   5.6884
     5.6884   6.8864   9.9636  10.0975  10.0975

          k = 0.0000 0.0000 0.3499 (  2379 PWs)   bands (ev):

    -8.4411  -8.3660  -8.3660  -8.2823  -8.2823  -4.8852   1.8830   5.2969
     5.2969   6.9367  10.5139  10.5139  11.2846

          k = 0.0000 0.0000 0.5249 (  2383 PWs)   bands (ev):

    -8.4708  -8.3594  -8.3594  -8.2782  -8.2782  -4.3743   0.6376   5.0425
     5.0425   6.7455  10.5470  10.5470  12.5810

          k = 0.0000 0.1650-0.0583 (  2379 PWs)   bands (ev):

    -8.4018  -8.3775  -8.3775  -8.2842  -8.2842  -5.3711   3.7229   5.6884
     5.6884   6.8864   9.9636  10.0975  10.0975

          k = 0.0000 0.1650 0.1166 (  2381 PWs)   bands (ev):

    -8.4142  -8.3714  -8.3714  -8.2893  -8.2808  -5.3098   3.6269   5.3163
     5.3163   7.6132   8.9923  10.6593  10.6593

          k = 0.0000 0.1650 0.2916 (  2385 PWs)   bands (ev):

    -8.4461  -8.3617  -8.3594  -8.2917  -8.2773  -4.9215   2.2691   4.7917
     4.8907   8.0235   9.1960  11.1759  11.2989

          k = 0.0000 0.1650 0.4666 (  2392 PWs)   bands (ev):

    -8.4740  -8.3559  -8.3514  -8.2881  -8.2753  -4.3924   0.9515   4.2257
     4.6968   7.8596   9.9901  11.3173  11.7407

          k = 0.0000 0.1650-0.5832 (  2379 PWs)   bands (ev):

    -8.4805  -8.3547  -8.3512  -8.2817  -8.2784  -4.1854   0.5342   3.9208
     4.8145   7.7855  10.2183  11.0538  12.7032

          k = 0.0000 0.1650-0.4082 (  2379 PWs)   bands (ev):

    -8.4618  -8.3583  -8.3575  -8.2853  -8.2794  -4.5668   1.3372   4.0215
     5.1894   7.8625  10.4606  10.7595  11.4402

          k = 0.0000 0.1650-0.2333 (  2383 PWs)   bands (ev):

    -8.4281  -8.3707  -8.3659  -8.2873  -8.2812  -5.0839   2.6923   4.6723
     5.6110   7.6636   9.8960  10.2667  10.9636

          k = 0.0000 0.3299-0.1166 (  2379 PWs)   bands (ev):

    -8.4411  -8.3660  -8.3660  -8.2823  -8.2823  -4.8852   1.8831   5.2969
     5.2969   6.9367  10.5139  10.5139  11.2846

          k = 0.0000 0.3299 0.0583 (  2385 PWs)   bands (ev):

    -8.4461  -8.3617  -8.3594  -8.2917  -8.2773  -4.9215   2.2691   4.7917
     4.8907   8.0235   9.1960  11.1759  11.2989

          k = 0.0000 0.3299 0.2333 (  2393 PWs)   bands (ev):

    -8.4754  -8.3447  -8.3447  -8.3010  -8.2728  -4.6586   1.8312   4.4086
     4.4086   8.0082   8.5219  12.4469  12.4469

          k = 0.0000 0.3299 0.4082 (  2375 PWs)   bands (ev):

    -8.4971  -8.3378  -8.3343  -8.3023  -8.2701  -4.2176   0.9771   3.7346
     4.1742   8.0539   8.9264  12.0650  12.8855

          k = 0.0000 0.3299-0.6415 (  2374 PWs)   bands (ev):

    -8.4991  -8.3425  -8.3339  -8.2949  -8.2747  -3.9334   0.5323   3.0500
     4.2884   8.1314  10.3420  12.1209  12.4903

          k = 0.0000 0.3299-0.4666 (  2369 PWs)   bands (ev):

    -8.4844  -8.3501  -8.3432  -8.2850  -8.2824  -4.1282   0.8094   3.0325
     4.7034   8.3396  10.8511  11.6394  11.7127

          k = 0.0000 0.3299-0.2916 (  2379 PWs)   bands (ev):

    -8.4618  -8.3583  -8.3575  -8.2853  -8.2794  -4.5668   1.3372   4.0215
     5.1894   7.8625  10.4606  10.7595  11.4402

          k = 0.0000 0.4949-0.1750 (  2383 PWs)   bands (ev):

    -8.4708  -8.3594  -8.3594  -8.2782  -8.2782  -4.3743   0.6376   5.0425
     5.0425   6.7455  10.5470  10.5470  12.5810

          k = 0.0000 0.4949 0.0000 (  2392 PWs)   bands (ev):

    -8.4740  -8.3559  -8.3514  -8.2881  -8.2753  -4.3924   0.9515   4.2257
     4.6968   7.8596   9.9901  11.3173  11.7407

          k = 0.0000 0.4949 0.1750 (  2375 PWs)   bands (ev):

    -8.4971  -8.3378  -8.3343  -8.3023  -8.2701  -4.2176   0.9771   3.7346
     4.1742   8.0539   8.9264  12.0650  12.8855

          k = 0.0000 0.4949 0.3499 (  2374 PWs)   bands (ev):

    -8.5185  -8.3225  -8.3225  -8.3109  -8.2660  -3.9453   0.5390   3.8636
     3.8636   7.5849   8.0522  14.2439  14.3078

          k = 0.0000 0.4949-0.6999 (  2378 PWs)   bands (ev):

    -8.5179  -8.3270  -8.3222  -8.3072  -8.2681  -3.8047   0.3753   3.3347
     3.9075   7.8101   8.7222  13.6816  14.0070

          k = 0.0000 0.4949-0.5249 (  2374 PWs)   bands (ev):

    -8.4991  -8.3425  -8.3339  -8.2949  -8.2747  -3.9334   0.5323   3.0500
     4.2884   8.1314  10.3420  12.1209  12.4903

          k = 0.0000 0.4949-0.3499 (  2379 PWs)   bands (ev):

    -8.4805  -8.3547  -8.3512  -8.2817  -8.2784  -4.1854   0.5342   3.9208
     4.8145   7.7855  10.2183  11.0538  12.7032

          k = 0.1429 0.2474-0.1750 (  2385 PWs)   bands (ev):

    -8.4461  -8.3617  -8.3594  -8.2917  -8.2773  -4.9215   2.2691   4.7917
     4.8907   8.0235   9.1960  11.1759  11.2989

          k = 0.1429 0.2474 0.0000 (  2383 PWs)   bands (ev):

    -8.4281  -8.3707  -8.3659  -8.2873  -8.2812  -5.0839   2.6923   4.6723
     5.6110   7.6636   9.8960  10.2667  10.9636

          k = 0.1429 0.2474 0.3499 (  2375 PWs)   bands (ev):

    -8.4733  -8.3524  -8.3464  -8.2942  -8.2749  -4.4991   1.4284   3.7835
     4.6697   8.7046   9.2192  10.9162  12.2321

          k = 0.1429 0.2474-0.6999 (  2384 PWs)   bands (ev):

    -8.4900  -8.3504  -8.3379  -8.2909  -8.2767  -4.0690   0.6769   3.2776
     4.3093   8.7720   9.9539  11.1534  12.7701

          k = 0.1429 0.4124-0.2333 (  2392 PWs)   bands (ev):

    -8.4740  -8.3559  -8.3514  -8.2881  -8.2753  -4.3924   0.9515   4.2257
     4.6968   7.8596   9.9901  11.3173  11.7407

          k = 0.1429 0.4124-0.0583 (  2379 PWs)   bands (ev):

    -8.4618  -8.3583  -8.3575  -8.2853  -8.2794  -4.5668   1.3372   4.0215
     5.1894   7.8625  10.4606  10.7595  11.4402

          k = 0.1429 0.4124 0.1166 (  2375 PWs)   bands (ev):

    -8.4733  -8.3524  -8.3464  -8.2942  -8.2749  -4.4991   1.4284   3.7835
     4.6697   8.7046   9.2192  10.9162  12.2321

          k = 0.1429 0.4124 0.2916 (  2375 PWs)   bands (ev):

    -8.4971  -8.3378  -8.3343  -8.3023  -8.2701  -4.2176   0.9771   3.7346
     4.1742   8.0539   8.9264  12.0650  12.8855

          k = 0.1429 0.4124-0.7582 (  2373 PWs)   bands (ev):

    -8.5081  -8.3367  -8.3255  -8.3019  -8.2710  -3.8954   0.5428   3.3853
     3.6996   8.7164   8.9485  11.9022  13.6916

          k = 0.1429 0.4124-0.5832 (  2379 PWs)   bands (ev):

    -8.5027  -8.3444  -8.3265  -8.2955  -8.2764  -3.8216   0.4864   2.9752
     3.7697   9.0137  10.3738  11.2738  12.3836

          k = 0.1429 0.4124-0.4082 (  2384 PWs)   bands (ev):

    -8.4900  -8.3504  -8.3379  -8.2908  -8.2767  -4.0690   0.6769   3.2776
     4.3093   8.7720   9.9539  11.1534  12.7701

          k = 0.1429-0.5774 0.1166 (  2379 PWs)   bands (ev):

    -8.4805  -8.3547  -8.3512  -8.2817  -8.2784  -4.1854   0.5342   3.9208
     4.8145   7.7855  10.2183  11.0538  12.7032

          k = 0.1429-0.5774 0.4666 (  2384 PWs)   bands (ev):

    -8.4900  -8.3504  -8.3379  -8.2908  -8.2767  -4.0690   0.6769   3.2776
     4.3093   8.7720   9.9539  11.1534  12.7701

          k = 0.1429-0.5774 0.6415 (  2373 PWs)   bands (ev):

    -8.5081  -8.3367  -8.3255  -8.3019  -8.2710  -3.8954   0.5428   3.3853
     3.6996   8.7164   8.9485  11.9022  13.6916

          k = 0.1429-0.5774-0.4082 (  2378 PWs)   bands (ev):

    -8.5179  -8.3270  -8.3222  -8.3072  -8.2681  -3.8047   0.3753   3.3347
     3.9075   7.8101   8.7222  13.6817  14.0070

          k = 0.2857-0.6598 0.0583 (  2374 PWs)   bands (ev):

    -8.4991  -8.3425  -8.3339  -8.2949  -8.2747  -3.9334   0.5323   3.0500
     4.2884   8.1314  10.3420  12.1209  12.4903

          k = 0.2857-0.6598 0.2333 (  2384 PWs)   bands (ev):

    -8.4900  -8.3504  -8.3379  -8.2908  -8.2767  -4.0690   0.6769   3.2776
     4.3093   8.7720   9.9539  11.1534  12.7701

          k = 0.2857-0.6598 0.4082 (  2369 PWs)   bands (ev):

    -8.4844  -8.3501  -8.3432  -8.2850  -8.2824  -4.1282   0.8094   3.0325
     4.7034   8.3396  10.8511  11.6394  11.7127

          k = 0.2857-0.6598-0.2916 (  2379 PWs)   bands (ev):

    -8.5027  -8.3444  -8.3265  -8.2955  -8.2764  -3.8216   0.4864   2.9752
     3.7697   9.0137  10.3738  11.2738  12.3836

     the Fermi energy is     5.9308 ev

!    total energy              =    -586.79244051 Ry

     total all-electron energy =    -16285.451520 Ry
     estimated scf accuracy    <          7.5E-10 Ry
     smearing contrib. (-TS)   =      -0.00001056 Ry
     internal energy E=F+TS    =    -586.79242995 Ry

     The total energy is F=E-TS. E is the sum of the following terms:
     one-electron contribution =     -56.67626672 Ry
     hartree contribution      =      41.38358601 Ry
     xc contribution           =     -57.71574786 Ry
     ewald contribution        =     -85.06876334 Ry
     one-center paw contrib.   =    -428.71523804 Ry

     convergence has been achieved in   7 iterations

     Forces acting on atoms (cartesian axes, Ry/au):

     atom    1 type  2   force =     0.00000000    0.00000000   -0.00000313
     atom    2 type  1   force =    -0.00000000   -0.00000000    0.00000313

     Total force =     0.000004     Total SCF correction =     0.000016
     SCF correction compared to forces is large: reduce conv_thr to get better values


     Computing stress (Cartesian axis) and pressure

          total   stress  (Ry/bohr**3)                   (kbar)     P=       -4.79
  -0.00003257   0.00000000   0.00000000           -4.79        0.00        0.00
   0.00000000  -0.00003257  -0.00000000            0.00       -4.79       -0.00
   0.00000000  -0.00000000  -0.00003258            0.00       -0.00       -4.79


     Writing all to output data dir ./outputs/basic.save/

     init_run     :     10.29s CPU      8.68s WALL (       1 calls)
     electrons    :    199.27s CPU    150.45s WALL (       1 calls)
     forces       :      0.90s CPU      0.87s WALL (       1 calls)
     stress       :      7.09s CPU      5.70s WALL (       1 calls)

     Called by init_run:
     wfcinit      :      8.77s CPU      7.07s WALL (       1 calls)
     potinit      :      0.26s CPU      0.15s WALL (       1 calls)
     hinit0       :      0.92s CPU      1.10s WALL (       1 calls)

     Called by electrons:
     c_bands      :    157.11s CPU    101.64s WALL (       8 calls)
     sum_band     :     37.06s CPU     44.45s WALL (       8 calls)
     v_of_rho     :      0.39s CPU      0.30s WALL (       8 calls)
     newd         :      3.29s CPU      3.05s WALL (       8 calls)
     PAW_pot      :      1.90s CPU      1.39s WALL (       8 calls)
     mix_rho      :      0.04s CPU      0.06s WALL (       8 calls)

     Called by c_bands:
     init_us_2    :      5.00s CPU      4.30s WALL (     836 calls)
     init_us_2:cp :      5.00s CPU      4.30s WALL (     836 calls)
     cegterg      :    153.94s CPU     98.95s WALL (     352 calls)

     Called by *egterg:
     cdiaghg      :      0.61s CPU      0.43s WALL (    1174 calls)
     h_psi        :    131.85s CPU     94.49s WALL (    1262 calls)
     s_psi        :      2.18s CPU      2.11s WALL (    1262 calls)
     g_psi        :      6.18s CPU      5.51s WALL (     866 calls)

     Called by h_psi:
     h_psi:calbec :      9.30s CPU      5.45s WALL (    1262 calls)
     vloc_psi     :    115.80s CPU     83.66s WALL (    1262 calls)
     add_vuspsi   :      0.81s CPU      0.51s WALL (    1262 calls)

     General routines
     calbec       :     12.87s CPU      7.67s WALL (    1834 calls)
     fft          :      0.95s CPU      1.04s WALL (     114 calls)
     ffts         :      0.11s CPU      0.12s WALL (       8 calls)
     fftw         :    123.82s CPU    121.06s WALL (   28582 calls)

     Parallel routines

     PWSCF        :   3m38.06s CPU   2m46.24s WALL


   This run was terminated on:   6:43:49  12Dec2024            

=------------------------------------------------------------------------------=
   JOB DONE.
=------------------------------------------------------------------------------=
