
     Program PWSCF v.7.0 starts on 12Dec2024 at  6:50:22 

     This program is part of the open-source Quantum ESPRESSO suite
     for quantum simulation of materials; please cite
         "P. Giannozzi et al., J. Phys.:Condens. Matter 21 395502 (2009);
         "P. Giannozzi et al., J. Phys.:Condens. Matter 29 465901 (2017);
         "P. Giannozzi et al., J. Chem. Phys. 152 154105 (2020);
          URL http://www.quantum-espresso.org", 
     in publications or presentations arising from this work. More details at
     http://www.quantum-espresso.org/quote

     Parallel version (MPI & OpenMP), running on       2 processor cores
     Number of MPI processes:                 1
     Threads/MPI process:                     2

     MPI processes distributed on     1 nodes
     185 MiB available memory on the printing compute node when the environment starts

     Reading input from basicbands.in

     Current dimensions of program PWSCF are:
     Max number of different atomic species (ntypx) = 10
     Max number of k-points (npk) =  40000
     Max angular momentum in pseudopotentials (lmaxx) =  4

     Atomic positions and unit cell read from directory:
     ./outputs/basic.save/
     Atomic positions from file used, from input discarded

     file In.pbe-dn-kjpaw_psl.1.0.0.UPF: wavefunction(s)  5S 5P 4D renormalized

     IMPORTANT: XC functional enforced from input :
     Exchange-correlation= PBE
                           (   1   4   3   4   0   0   0)
     Any further DFT definition will be discarded
     Please, verify this is what you really want

     Message from routine setup:
     using ibrav=0 with symmetry is DISCOURAGED, use correct ibrav instead

     Subspace diagonalization in iterative solution of the eigenvalue problem:
     a serial algorithm will be used


     G-vector sticks info
     --------------------
     sticks:   dense  smooth     PW     G-vecs:    dense   smooth      PW
     Sum         955     955    283                19027    19027    3071

     Using Slab Decomposition



     bravais-lattice index     =            0
     lattice parameter (alat)  =       8.2599  a.u.
     unit-cell volume          =     398.4878 (a.u.)^3
     number of atoms/cell      =            2
     number of atomic types    =            2
     number of electrons       =        18.00
     number of Kohn-Sham states=           16
     kinetic-energy cutoff     =      50.0000  Ry
     charge density cutoff     =     200.0000  Ry
     Exchange-correlation= PBE
                           (   1   4   3   4   0   0   0)

     celldm(1)=   8.259936  celldm(2)=   0.000000  celldm(3)=   0.000000
     celldm(4)=   0.000000  celldm(5)=   0.000000  celldm(6)=   0.000000

     crystal axes: (cart. coord. in units of alat)
               a(1) = (   1.000000   0.000000   0.000000 )  
               a(2) = (   0.500000   0.866025   0.000000 )  
               a(3) = (   0.500000   0.288675   0.816497 )  

     reciprocal axes: (cart. coord. in units 2 pi/alat)
               b(1) = (  1.000000 -0.577350 -0.408248 )  
               b(2) = (  0.000000  1.154701 -0.408248 )  
               b(3) = (  0.000000  0.000000  1.224745 )  


     PseudoPot. # 1 for As read from file:
     ./As.pbe-n-kjpaw_psl.1.0.0.UPF
     MD5 check sum: 21b474db91924651be503153fb2dbf55
     Pseudo is Projector augmented-wave + core cor, Zval =  5.0
     Generated using &quot;atomic&quot; code by A. Dal Corso  v.6.3
     Shape of augmentation charge: PSQ
     Using radial grid of 1209 points,  4 beta functions with: 
                l(1) =   0
                l(2) =   0
                l(3) =   1
                l(4) =   1
     Q(r) pseudized with 0 coefficients 


     PseudoPot. # 2 for In read from file:
     ./In.pbe-dn-kjpaw_psl.1.0.0.UPF
     MD5 check sum: 235b15e6a7fdfd96486e0ecdcb5b12c6
     Pseudo is Projector augmented-wave + core cor, Zval = 13.0
     Generated using &quot;atomic&quot; code by A. Dal Corso  v.6.3
     Shape of augmentation charge: PSQ
     Using radial grid of 1241 points,  6 beta functions with: 
                l(1) =   0
                l(2) =   0
                l(3) =   1
                l(4) =   1
                l(5) =   2
                l(6) =   2
     Q(r) pseudized with 0 coefficients 


     atomic species   valence    mass     pseudopotential
        As             5.00    74.92100     As( 1.00)
        In            13.00   114.81800     In( 1.00)

      6 Sym. Ops. (no inversion) found



   Cartesian axes

     site n.     atom                  positions (alat units)
         1           In  tau(   1) = (   0.5000000   0.2886751   0.2041241  )
         2           As  tau(   2) = (   0.0000000   0.0000000   0.0000000  )

     number of k points=   301  Marzari-Vanderbilt smearing, width (Ry)=  0.0050

     Number of k-points >= 100: set verbosity='high' to print them.

     Dense  grid:    19027 G-vectors     FFT dimensions: (  40,  40,  40)

     Estimated max dynamical RAM per process >      65.55 MB

     Check: negative core charge=   -0.000003

     The potential is recalculated from file :
     ./outputs/basic.save/charge-density

     Starting wfcs are   13 randomized atomic wfcs +    3 random wfcs
     Checking if some PAW data can be deallocated... 

     Band Structure Calculation
     Davidson diagonalization with overlap

     ethr =  5.56E-11,  avg # of iterations = 26.2

     total cpu time spent up to now is      647.0 secs

     End of band structure calculation

     Number of k-points >= 100: set verbosity='high' to print the bands.

     Writing all to output data dir ./outputs/basic.save/

     init_run     :      2.21s CPU      1.93s WALL (       1 calls)
     electrons    :    879.53s CPU    644.85s WALL (       1 calls)

     Called by init_run:
     wfcinit      :      0.00s CPU      0.00s WALL (       1 calls)
     potinit      :      0.25s CPU      0.14s WALL (       1 calls)
     hinit0       :      1.04s CPU      1.02s WALL (       1 calls)

     Called by electrons:
     c_bands      :    879.53s CPU    644.85s WALL (       1 calls)
     v_of_rho     :      0.04s CPU      0.02s WALL (       1 calls)
     newd         :      0.58s CPU      0.37s WALL (       1 calls)
     PAW_pot      :      0.20s CPU      0.12s WALL (       1 calls)

     Called by c_bands:
     init_us_2    :      0.79s CPU      0.57s WALL (     301 calls)
     init_us_2:cp :      0.79s CPU      0.57s WALL (     301 calls)
     cegterg      :    833.63s CPU    576.02s WALL (     546 calls)

     Called by *egterg:
     cdiaghg      :     10.39s CPU     18.74s WALL (    8194 calls)
     h_psi        :    656.90s CPU    451.50s WALL (    8740 calls)
     s_psi        :     12.92s CPU     -5.16s WALL (    8740 calls)
     g_psi        :     37.06s CPU     31.81s WALL (    7893 calls)

     Called by h_psi:
     h_psi:calbec :     54.86s CPU     13.29s WALL (    8740 calls)
     vloc_psi     :    569.97s CPU    412.91s WALL (    8740 calls)
     add_vuspsi   :      4.74s CPU      2.98s WALL (    8740 calls)

     General routines
     calbec       :     54.83s CPU     13.27s WALL (    8740 calls)
     fft          :      0.52s CPU      0.49s WALL (      12 calls)
     fftw         :    526.29s CPU    300.67s WALL (  137416 calls)
     davcio       :      0.64s CPU      1.58s WALL (     602 calls)

     Parallel routines

     PWSCF        :  14m43.47s CPU  11m34.20s WALL


   This run was terminated on:   7: 1:56  12Dec2024            

=------------------------------------------------------------------------------=
   JOB DONE.
=------------------------------------------------------------------------------=
