
     Program BANDS v.7.0 starts on 12Dec2024 at  7: 5:53 

     This program is part of the open-source Quantum ESPRESSO suite
     for quantum simulation of materials; please cite
         "P. Giannozzi et al., J. Phys.:Condens. Matter 21 395502 (2009);
         "P. Giannozzi et al., J. Phys.:Condens. Matter 29 465901 (2017);
         "P. Giannozzi et al., J. Chem. Phys. 152 154105 (2020);
          URL http://www.quantum-espresso.org", 
     in publications or presentations arising from this work. More details at
     http://www.quantum-espresso.org/quote

     Parallel version (MPI & OpenMP), running on       2 processor cores
     Number of MPI processes:                 1
     Threads/MPI process:                     2

     MPI processes distributed on     1 nodes
     70 MiB available memory on the printing compute node when the environment starts


     Reading xml data from directory:

     ./outputs/basic.save/
     file In.pbe-dn-kjpaw_psl.1.0.0.UPF: wavefunction(s)  5S 5P 4D renormalized

     IMPORTANT: XC functional enforced from input :
     Exchange-correlation= PBE
                           (   1   4   3   4   0   0   0)
     Any further DFT definition will be discarded
     Please, verify this is what you really want


     G-vector sticks info
     --------------------
     sticks:   dense  smooth     PW     G-vecs:    dense   smooth      PW
     Sum         955     955    283                19027    19027    3071

     Using Slab Decomposition


     Check: negative core charge=   -0.000003
     Reading collected, re-writing distributed wavefunctions
     high-symmetry point:  0.0000 0.0000 0.0000   x coordinate   0.0000
     high-symmetry point:  0.5000-0.2887 0.4082   x coordinate   0.7071
     high-symmetry point:  0.5000 0.0000 0.6124   x coordinate   1.0607
     high-symmetry point:  0.3750 0.2165 0.6001   x coordinate   1.3110
     high-symmetry point:  0.0000 0.0000 0.0000   x coordinate   2.0510
     high-symmetry point:  0.5000 0.2887 0.2041   x coordinate   2.6634
     high-symmetry point:  0.6250-0.0722 0.4082   x coordinate   3.0964
     high-symmetry point:  0.5000 0.0000 0.6124   x coordinate   3.3464
     high-symmetry point:  0.5000 0.2887 0.2041   x coordinate   3.8464
     high-symmetry point:  0.3750 0.2165 0.6001   x coordinate   4.2679
     high-symmetry point:  0.5000-0.2887 0.4082   x coordinate   4.8225

     Plottable bands (eV) written to file inasbands.dat.gnu
     Bands written to file inasbands.dat

 **************************************************************************

                    xk=(   0.00000,   0.00000,   0.00000  )

     point group C_3v (3m)  
     there are  3 classes
     the character table:

       E     2C3   3s_v 
A_1    1.00  1.00  1.00
A_2    1.00  1.00 -1.00
E      2.00 -1.00  0.00

     the symmetry operations in each class and the name of the first element:

     E        1
                                                                 
     2C3      2    3
                                                                 
     3s_v     4    5    6
                                                                 

     Band symmetry, C_3v (3m)   point group:

     e(  1 -  3) =     -8.38407  eV     3   --> A_1  L_1       
     e(  1 -  3) =     -8.38407  eV     3   --> E    L_3       
     e(  4 -  5) =     -8.28511  eV     2   --> E    L_3       
     e(  6 -  6) =     -5.55577  eV     1   --> A_1  L_1       
     e(  7 -  7) =      5.37485  eV     1   --> A_1  L_1       
     e(  8 - 10) =      5.90633  eV     3   --> A_1  L_1       
     e(  8 - 10) =      5.90633  eV     3   --> E    L_3       
     e( 11 - 13) =      9.77225  eV     3   --> A_1  L_1       
     e( 11 - 13) =      9.77225  eV     3   --> E    L_3       
     e( 14 - 14) =     13.24651  eV     1   --> A_1  L_1       
     e( 15 - 16) =     15.46173  eV     2   --> E    L_3       

 **************************************************************************

 **************************************************************************

                    xk=(   0.01667,  -0.00962,   0.01361  )

     point group C_s (m)    
     there are  2 classes
     the character table:

       E     s    
A'     1.00  1.00
A''    1.00 -1.00

     the symmetry operations in each class and the name of the first element:

     E        1
                                                                 
     s        2
                                                                 

     Band symmetry, C_s (m)     point group:

     e(  1 -  1) =     -8.38454  eV     1   --> A'             
     e(  2 -  3) =     -8.38390  eV     2   --> A'             
     e(  2 -  3) =     -8.38390  eV     2   --> A''            
     e(  4 -  4) =     -8.28517  eV     1   --> A'             
     e(  5 -  5) =     -8.28506  eV     1   --> A''            
     e(  6 -  6) =     -5.55232  eV     1   --> A'             
     e(  7 -  7) =      5.28391  eV     1   --> A'             
     e(  8 -  9) =      5.89605  eV     2   --> A'             
     e(  8 -  9) =      5.89605  eV     2   --> A''            
     e( 10 - 10) =      5.99752  eV     1   --> A'             
     e( 11 - 11) =      9.75669  eV     1   --> A'             
     e( 12 - 13) =      9.78660  eV     2   --> A'             
     e( 12 - 13) =      9.78660  eV     2   --> A''            
     e( 14 - 14) =     13.27058  eV     1   --> A'             
     e( 15 - 15) =     15.36049  eV     1   --> A'             
     e( 16 - 16) =     15.46489  eV     1   --> A''            

 **************************************************************************

 **************************************************************************

                    xk=(   0.03333,  -0.01925,   0.02722  )

     Band symmetry, C_s (m)     point group:

     e(  1 -  1) =     -8.38590  eV     1   --> A'             
     e(  2 -  3) =     -8.38331  eV     2   --> A'             
     e(  2 -  3) =     -8.38331  eV     2   --> A''            
     e(  4 -  4) =     -8.28531  eV     1   --> A'             
     e(  5 -  5) =     -8.28490  eV     1   --> A''            
     e(  6 -  6) =     -5.54201  eV     1   --> A'             
     e(  7 -  7) =      5.09615  eV     1   --> A'             
     e(  8 -  9) =      5.86572  eV     2   --> A'             
     e(  8 -  9) =      5.86572  eV     2   --> A''            
     e( 10 - 10) =      6.18591  eV     1   --> A'             
     e( 11 - 11) =      9.71138  eV     1   --> A'             
     e( 12 - 13) =      9.82911  eV     2   --> A'             
     e( 12 - 13) =      9.82911  eV     2   --> A''            
     e( 14 - 14) =     13.34125  eV     1   --> A'             
     e( 15 - 15) =     15.12982  eV     1   --> A'             
     e( 16 - 16) =     15.47437  eV     1   --> A''            

 **************************************************************************

 **************************************************************************

                    xk=(   0.05000,  -0.02887,   0.04082  )

     Band symmetry, C_s (m)     point group:

     e(  1 -  1) =     -8.38801  eV     1   --> A'             
     e(  2 -  3) =     -8.38214  eV     2   --> A'             
     e(  2 -  3) =     -8.38214  eV     2   --> A''            
     e(  4 -  4) =     -8.28513  eV     1   --> A'             
     e(  5 -  5) =     -8.28456  eV     1   --> A''            
     e(  6 -  6) =     -5.52486  eV     1   --> A'             
     e(  7 -  7) =      4.88119  eV     1   --> A'             
     e(  8 -  9) =      5.81683  eV     2   --> A'             
     e(  8 -  9) =      5.81683  eV     2   --> A''            
     e( 10 - 10) =      6.40152  eV     1   --> A'             
     e( 11 - 11) =      9.64000  eV     1   --> A'             
     e( 12 - 13) =      9.89832  eV     2   --> A'             
     e( 12 - 13) =      9.89832  eV     2   --> A''            
     e( 14 - 14) =     13.45422  eV     1   --> A'             
     e( 15 - 15) =     14.85211  eV     1   --> A'             
     e( 16 - 16) =     15.49017  eV     1   --> A''            

 **************************************************************************

 **************************************************************************

                    xk=(   0.06667,  -0.03849,   0.05443  )

     Band symmetry, C_s (m)     point group:

     e(  1 -  1) =     -8.39113  eV     1   --> A'             
     e(  2 -  3) =     -8.38071  eV     2   --> A'             
     e(  2 -  3) =     -8.38071  eV     2   --> A''            
     e(  4 -  4) =     -8.28564  eV     1   --> A'             
     e(  5 -  5) =     -8.28396  eV     1   --> A''            
     e(  6 -  6) =     -5.50098  eV     1   --> A'             
     e(  7 -  7) =      4.65777  eV     1   --> A'             
     e(  8 -  9) =      5.75153  eV     2   --> A'             
     e(  8 -  9) =      5.75153  eV     2   --> A''            
     e( 10 - 10) =      6.62498  eV     1   --> A'             
     e( 11 - 11) =      9.54753  eV     1   --> A'             
     e( 12 - 13) =      9.99202  eV     2   --> A'             
     e( 12 - 13) =      9.99202  eV     2   --> A''            
     e( 14 - 14) =     13.60243  eV     1   --> A'             
     e( 15 - 15) =     14.56329  eV     1   --> A'             
     e( 16 - 16) =     15.51228  eV     1   --> A''            

 **************************************************************************

 **************************************************************************

                    xk=(   0.08333,  -0.04811,   0.06804  )

     Band symmetry, C_s (m)     point group:

     e(  1 -  1) =     -8.39508  eV     1   --> A'             
     e(  2 -  3) =     -8.37923  eV     2   --> A'             
     e(  2 -  3) =     -8.37923  eV     2   --> A''            
     e(  4 -  4) =     -8.28618  eV     1   --> A'             
     e(  5 -  5) =     -8.28350  eV     1   --> A''            
     e(  6 -  6) =     -5.47046  eV     1   --> A'             
     e(  7 -  7) =      4.43160  eV     1   --> A'             
     e(  8 -  9) =      5.67238  eV     2   --> A'             
     e(  8 -  9) =      5.67238  eV     2   --> A''            
     e( 10 - 10) =      6.84967  eV     1   --> A'             
     e( 11 - 11) =      9.43931  eV     1   --> A'             
     e( 12 - 13) =     10.10761  eV     2   --> A'             
     e( 12 - 13) =     10.10761  eV     2   --> A''            
     e( 14 - 14) =     13.77110  eV     1   --> A'             
     e( 15 - 15) =     14.28742  eV     1   --> A'             
     e( 16 - 16) =     15.54064  eV     1   --> A''            

 **************************************************************************

 **************************************************************************

                    xk=(   0.10000,  -0.05774,   0.08165  )

     Band symmetry, C_s (m)     point group:

     e(  1 -  1) =     -8.39961  eV     1   --> A'             
     e(  2 -  3) =     -8.37737  eV     2   --> A'             
     e(  2 -  3) =     -8.37737  eV     2   --> A''            
     e(  4 -  4) =     -8.28681  eV     1   --> A'             
     e(  5 -  5) =     -8.28284  eV     1   --> A''            
     e(  6 -  6) =     -5.43344  eV     1   --> A'             
     e(  7 -  7) =      4.20497  eV     1   --> A'             
     e(  8 -  9) =      5.58210  eV     2   --> A'             
     e(  8 -  9) =      5.58210  eV     2   --> A''            
     e( 10 - 10) =      7.07203  eV     1   --> A'             
     e( 11 - 11) =      9.32028  eV     1   --> A'             
     e( 12 - 13) =     10.24240  eV     2   --> A'             
     e( 12 - 13) =     10.24240  eV     2   --> A''            
     e( 14 - 14) =     13.85562  eV     1   --> A'             
     e( 15 - 15) =     14.13206  eV     1   --> A'             
     e( 16 - 16) =     15.57525  eV     1   --> A''            

 **************************************************************************

 **************************************************************************

                    xk=(   0.11667,  -0.06736,   0.09526  )

     Band symmetry, C_s (m)     point group:

     e(  1 -  1) =     -8.40493  eV     1   --> A'             
     e(  2 -  3) =     -8.37532  eV     2   --> A'             
     e(  2 -  3) =     -8.37532  eV     2   --> A''            
     e(  4 -  4) =     -8.28760  eV     1   --> A'             
     e(  5 -  5) =     -8.28220  eV     1   --> A''            
     e(  6 -  6) =     -5.39010  eV     1   --> A'             
     e(  7 -  7) =      3.97903  eV     1   --> A'             
     e(  8 -  9) =      5.48326  eV     2   --> A'             
     e(  8 -  9) =      5.48326  eV     2   --> A''            
     e( 10 - 10) =      7.28924  eV     1   --> A'             
     e( 11 - 11) =      9.19469  eV     1   --> A'             
     e( 12 - 13) =     10.39373  eV     2   --> A'             
     e( 12 - 13) =     10.39373  eV     2   --> A''            
     e( 14 - 14) =     13.66145  eV     1   --> A'             
     e( 15 - 15) =     14.29277  eV     1   --> A'             
     e( 16 - 16) =     15.61604  eV     1   --> A''            

 **************************************************************************

 **************************************************************************

                    xk=(   0.13333,  -0.07698,   0.10887  )

     Band symmetry, C_s (m)     point group:

     e(  1 -  1) =     -8.41081  eV     1   --> A'             
     e(  2 -  3) =     -8.37288  eV     2   --> A'             
     e(  2 -  3) =     -8.37288  eV     2   --> A''            
     e(  4 -  4) =     -8.28883  eV     1   --> A'             
     e(  5 -  5) =     -8.28145  eV     1   --> A''            
     e(  6 -  6) =     -5.34063  eV     1   --> A'             
     e(  7 -  7) =      3.75444  eV     1   --> A'             
     e(  8 -  9) =      5.37827  eV     2   --> A'             
     e(  8 -  9) =      5.37827  eV     2   --> A''            
     e( 10 - 10) =      7.49848  eV     1   --> A'             
     e( 11 - 11) =      9.06605  eV     1   --> A'             
     e( 12 - 13) =     10.55922  eV     2   --> A'             
     e( 12 - 13) =     10.55922  eV     2   --> A''            
     e( 14 - 14) =     13.42221  eV     1   --> A'             
     e( 15 - 15) =     14.53656  eV     1   --> A'             
     e( 16 - 16) =     15.66298  eV     1   --> A''            

 **************************************************************************

 **************************************************************************

                    xk=(   0.15000,  -0.08660,   0.12247  )

     Band symmetry, C_s (m)     point group:

     e(  1 -  1) =     -8.41701  eV     1   --> A'             
     e(  2 -  3) =     -8.37031  eV     2   --> A'             
     e(  2 -  3) =     -8.37031  eV     2   --> A''            
     e(  4 -  4) =     -8.28994  eV     1   --> A'             
     e(  5 -  5) =     -8.28057  eV     1   --> A''            
     e(  6 -  6) =     -5.28528  eV     1   --> A'             
     e(  7 -  7) =      3.53167  eV     1   --> A'             
     e(  8 -  9) =      5.26921  eV     2   --> A'             
     e(  8 -  9) =      5.26921  eV     2   --> A''            
     e( 10 - 10) =      7.69653  eV     1   --> A'             
     e( 11 - 11) =      8.93727  eV     1   --> A'             
     e( 12 - 13) =     10.73673  eV     2   --> A'             
     e( 12 - 13) =     10.73673  eV     2   --> A''            
     e( 14 - 14) =     13.19758  eV     1   --> A'             
     e( 15 - 15) =     14.80464  eV     1   --> A'             
     e( 16 - 16) =     15.71600  eV     1   --> A''            

 **************************************************************************

 **************************************************************************

                    xk=(   0.16667,  -0.09623,   0.13608  )

     Band symmetry, C_s (m)     point group:

     e(  1 -  1) =     -8.42376  eV     1   --> A'             
     e(  2 -  3) =     -8.36762  eV     2   --> A'             
     e(  2 -  3) =     -8.36762  eV     2   --> A''            
     e(  4 -  4) =     -8.29119  eV     1   --> A'             
     e(  5 -  5) =     -8.27973  eV     1   --> A''            
     e(  6 -  6) =     -5.22430  eV     1   --> A'             
     e(  7 -  7) =      3.31107  eV     1   --> A'             
     e(  8 -  9) =      5.15792  eV     2   --> A'             
     e(  8 -  9) =      5.15792  eV     2   --> A''            
     e( 10 - 10) =      7.87951  eV     1   --> A'             
     e( 11 - 11) =      8.81092  eV     1   --> A'             
     e( 12 - 13) =     10.92440  eV     2   --> A'             
     e( 12 - 13) =     10.92440  eV     2   --> A''            
     e( 14 - 14) =     12.99786  eV     1   --> A'             
     e( 15 - 15) =     15.08793  eV     1   --> A'             
     e( 16 - 16) =     15.77499  eV     1   --> A''            

 **************************************************************************

 **************************************************************************

                    xk=(   0.18333,  -0.10585,   0.14969  )

     Band symmetry, C_s (m)     point group:

     e(  1 -  1) =     -8.43089  eV     1   --> A'             
     e(  2 -  3) =     -8.36487  eV     2   --> A'             
     e(  2 -  3) =     -8.36487  eV     2   --> A''            
     e(  4 -  4) =     -8.29215  eV     1   --> A'             
     e(  5 -  5) =     -8.27885  eV     1   --> A''            
     e(  6 -  6) =     -5.15801  eV     1   --> A'             
     e(  7 -  7) =      3.09299  eV     1   --> A'             
     e(  8 -  9) =      5.04594  eV     2   --> A'             
     e(  8 -  9) =      5.04594  eV     2   --> A''            
     e( 10 - 10) =      8.04245  eV     1   --> A'             
     e( 11 - 11) =      8.68974  eV     1   --> A'             
     e( 12 - 13) =     11.12065  eV     2   --> A'             
     e( 12 - 13) =     11.12065  eV     2   --> A''            
     e( 14 - 14) =     12.82890  eV     1   --> A'             
     e( 15 - 15) =     15.38214  eV     1   --> A'             
     e( 16 - 16) =     15.83985  eV     1   --> A''            

 **************************************************************************

 **************************************************************************

                    xk=(   0.20000,  -0.11547,   0.16330  )

     Band symmetry, C_s (m)     point group:

     e(  1 -  1) =     -8.43812  eV     1   --> A'             
     e(  2 -  3) =     -8.36179  eV     2   --> A'             
     e(  2 -  3) =     -8.36179  eV     2   --> A''            
     e(  4 -  4) =     -8.29347  eV     1   --> A'             
     e(  5 -  5) =     -8.27791  eV     1   --> A''            
     e(  6 -  6) =     -5.08674  eV     1   --> A'             
     e(  7 -  7) =      2.87774  eV     1   --> A'             
     e(  8 -  9) =      4.93463  eV     2   --> A'             
     e(  8 -  9) =      4.93463  eV     2   --> A''            
     e( 10 - 10) =      8.17783  eV     1   --> A'             
     e( 11 - 11) =      8.57846  eV     1   --> A'             
     e( 12 - 13) =     11.32414  eV     2   --> A'             
     e( 12 - 13) =     11.32414  eV     2   --> A''            
     e( 14 - 14) =     12.69565  eV     1   --> A'             
     e( 15 - 15) =     15.68388  eV     1   --> A'             
     e( 16 - 16) =     15.91046  eV     1   --> A''            

 **************************************************************************

 **************************************************************************

                    xk=(   0.21667,  -0.12509,   0.17691  )

     Band symmetry, C_s (m)     point group:

     e(  1 -  1) =     -8.44558  eV     1   --> A'             
     e(  2 -  3) =     -8.35855  eV     2   --> A'             
     e(  2 -  3) =     -8.35855  eV     2   --> A''            
     e(  4 -  4) =     -8.29489  eV     1   --> A'             
     e(  5 -  5) =     -8.27709  eV     1   --> A''            
     e(  6 -  6) =     -5.01088  eV     1   --> A'             
     e(  7 -  7) =      2.66569  eV     1   --> A'             
     e(  8 -  9) =      4.82508  eV     2   --> A'             
     e(  8 -  9) =      4.82508  eV     2   --> A''            
     e( 10 - 10) =      8.26707  eV     1   --> A'             
     e( 11 - 11) =      8.49271  eV     1   --> A'             
     e( 12 - 13) =     11.53372  eV     2   --> A'             
     e( 12 - 13) =     11.53372  eV     2   --> A''            
     e( 14 - 14) =     12.60240  eV     1   --> A'             
     e( 15 - 15) =     15.98661  eV     1   --> A''            
     e( 16 - 16) =     15.98987  eV     1   --> A'             

 **************************************************************************

 **************************************************************************

                    xk=(   0.23333,  -0.13472,   0.19052  )

     Band symmetry, C_s (m)     point group:

     e(  1 -  1) =     -8.45326  eV     1   --> A'             
     e(  2 -  3) =     -8.35568  eV     2   --> A'             
     e(  2 -  3) =     -8.35568  eV     2   --> A''            
     e(  4 -  4) =     -8.29636  eV     1   --> A'             
     e(  5 -  5) =     -8.27634  eV     1   --> A''            
     e(  6 -  6) =     -4.93089  eV     1   --> A'             
     e(  7 -  7) =      2.45723  eV     1   --> A'             
     e(  8 -  9) =      4.71825  eV     2   --> A'             
     e(  8 -  9) =      4.71825  eV     2   --> A''            
     e( 10 - 10) =      8.26385  eV     1   --> A'             
     e( 11 - 11) =      8.47648  eV     1   --> A'             
     e( 12 - 13) =     11.74838  eV     2   --> A'             
     e( 12 - 13) =     11.74838  eV     2   --> A''            
     e( 14 - 14) =     12.55240  eV     1   --> A'             
     e( 15 - 15) =     16.06814  eV     1   --> A''            
     e( 16 - 16) =     16.29655  eV     1   --> A'             

 **************************************************************************

 **************************************************************************

                    xk=(   0.25000,  -0.14434,   0.20412  )

     Band symmetry, C_s (m)     point group:

     e(  1 -  1) =     -8.46060  eV     1   --> A'             
     e(  2 -  3) =     -8.35248  eV     2   --> A'             
     e(  2 -  3) =     -8.35248  eV     2   --> A''            
     e(  4 -  4) =     -8.29806  eV     1   --> A'             
     e(  5 -  5) =     -8.27534  eV     1   --> A''            
     e(  6 -  6) =     -4.84724  eV     1   --> A'             
     e(  7 -  7) =      2.25284  eV     1   --> A'             
     e(  8 -  9) =      4.61496  eV     2   --> A'             
     e(  8 -  9) =      4.61496  eV     2   --> A''            
     e( 10 - 10) =      8.19043  eV     1   --> A'             
     e( 11 - 11) =      8.50651  eV     1   --> A'             
     e( 12 - 13) =     11.96727  eV     2   --> A'             
     e( 12 - 13) =     11.96727  eV     2   --> A''            
     e( 14 - 14) =     12.54717  eV     1   --> A'             
     e( 15 - 15) =     16.15478  eV     1   --> A''            
     e( 16 - 16) =     16.59984  eV     1   --> A'             

 **************************************************************************

 **************************************************************************

                    xk=(   0.26667,  -0.15396,   0.21773  )

     Band symmetry, C_s (m)     point group:

     e(  1 -  1) =     -8.46780  eV     1   --> A'             
     e(  2 -  3) =     -8.34893  eV     2   --> A'             
     e(  2 -  3) =     -8.34893  eV     2   --> A''            
     e(  4 -  4) =     -8.29937  eV     1   --> A'             
     e(  5 -  5) =     -8.27425  eV     1   --> A''            
     e(  6 -  6) =     -4.76053  eV     1   --> A'             
     e(  7 -  7) =      2.05305  eV     1   --> A'             
     e(  8 -  9) =      4.51590  eV     2   --> A'             
     e(  8 -  9) =      4.51590  eV     2   --> A''            
     e( 10 - 10) =      8.10411  eV     1   --> A'             
     e( 11 - 11) =      8.52641  eV     1   --> A'             
     e( 12 - 13) =     12.18959  eV     2   --> A'             
     e( 12 - 13) =     12.18959  eV     2   --> A''            
     e( 14 - 14) =     12.58603  eV     1   --> A'             
     e( 15 - 15) =     16.24620  eV     1   --> A''            
     e( 16 - 16) =     16.89488  eV     1   --> A'             

 **************************************************************************

 **************************************************************************

                    xk=(   0.28333,  -0.16358,   0.23134  )

     Band symmetry, C_s (m)     point group:

     e(  1 -  1) =     -8.47471  eV     1   --> A'             
     e(  2 -  3) =     -8.34539  eV     2   --> A'             
     e(  2 -  3) =     -8.34539  eV     2   --> A''            
     e(  4 -  4) =     -8.30105  eV     1   --> A'             
     e(  5 -  5) =     -8.27318  eV     1   --> A''            
     e(  6 -  6) =     -4.67140  eV     1   --> A'             
     e(  7 -  7) =      1.85850  eV     1   --> A'             
     e(  8 -  9) =      4.42165  eV     2   --> A'             
     e(  8 -  9) =      4.42165  eV     2   --> A''            
     e( 10 - 10) =      8.01986  eV     1   --> A'             
     e( 11 - 11) =      8.52412  eV     1   --> A'             
     e( 12 - 13) =     12.41456  eV     2   --> A'             
     e( 12 - 13) =     12.41456  eV     2   --> A''            
     e( 14 - 14) =     12.66598  eV     1   --> A'             
     e( 15 - 15) =     16.34198  eV     1   --> A''            
     e( 16 - 16) =     17.17586  eV     1   --> A'             

 **************************************************************************

 **************************************************************************

                    xk=(   0.30000,  -0.17321,   0.24495  )

     Band symmetry, C_s (m)     point group:

     e(  1 -  1) =     -8.48146  eV     1   --> A'             
     e(  2 -  3) =     -8.34213  eV     2   --> A'             
     e(  2 -  3) =     -8.34213  eV     2   --> A''            
     e(  4 -  4) =     -8.30256  eV     1   --> A'             
     e(  5 -  5) =     -8.27221  eV     1   --> A''            
     e(  6 -  6) =     -4.58061  eV     1   --> A'             
     e(  7 -  7) =      1.66993  eV     1   --> A'             
     e(  8 -  9) =      4.33271  eV     2   --> A'             
     e(  8 -  9) =      4.33271  eV     2   --> A''            
     e( 10 - 10) =      7.94128  eV     1   --> A'             
     e( 11 - 11) =      8.50046  eV     1   --> A'             
     e( 12 - 13) =     12.64141  eV     2   --> A'             
     e( 12 - 13) =     12.64141  eV     2   --> A''            
     e( 14 - 14) =     12.78225  eV     1   --> A'             
     e( 15 - 15) =     16.44159  eV     1   --> A''            
     e( 16 - 16) =     17.43582  eV     1   --> A'             

 **************************************************************************

 **************************************************************************

                    xk=(   0.31667,  -0.18283,   0.25856  )

     Band symmetry, C_s (m)     point group:

     e(  1 -  1) =     -8.48788  eV     1   --> A'             
     e(  2 -  3) =     -8.33902  eV     2   --> A'             
     e(  2 -  3) =     -8.33902  eV     2   --> A''            
     e(  4 -  4) =     -8.30405  eV     1   --> A'             
     e(  5 -  5) =     -8.27139  eV     1   --> A''            
     e(  6 -  6) =     -4.48903  eV     1   --> A'             
     e(  7 -  7) =      1.48821  eV     1   --> A'             
     e(  8 -  9) =      4.24953  eV     2   --> A'             
     e(  8 -  9) =      4.24953  eV     2   --> A''            
     e( 10 - 10) =      7.86965  eV     1   --> A'             
     e( 11 - 11) =      8.45943  eV     1   --> A'             
     e( 12 - 13) =     12.86928  eV     2   --> A'             
     e( 12 - 13) =     12.86928  eV     2   --> A''            
     e( 14 - 14) =     12.92900  eV     1   --> A'             
     e( 15 - 15) =     16.54438  eV     1   --> A''            
     e( 16 - 16) =     17.66644  eV     1   --> A'             

 **************************************************************************

 **************************************************************************

                    xk=(   0.33333,  -0.19245,   0.27217  )

     Band symmetry, C_s (m)     point group:

     e(  1 -  1) =     -8.49392  eV     1   --> A'             
     e(  2 -  3) =     -8.33599  eV     2   --> A'             
     e(  2 -  3) =     -8.33599  eV     2   --> A''            
     e(  4 -  4) =     -8.30548  eV     1   --> A'             
     e(  5 -  5) =     -8.27048  eV     1   --> A''            
     e(  6 -  6) =     -4.39766  eV     1   --> A'             
     e(  7 -  7) =      1.31435  eV     1   --> A'             
     e(  8 -  9) =      4.17249  eV     2   --> A'             
     e(  8 -  9) =      4.17249  eV     2   --> A''            
     e( 10 - 10) =      7.80551  eV     1   --> A'             
     e( 11 - 11) =      8.40575  eV     1   --> A'             
     e( 12 - 13) =     13.09717  eV     2   --> A'             
     e( 12 - 13) =     13.09717  eV     2   --> A''            
     e( 14 - 14) =     13.10001  eV     1   --> A'             
     e( 15 - 15) =     16.64953  eV     1   --> A''            
     e( 16 - 16) =     17.85812  eV     1   --> A'             

 **************************************************************************

 **************************************************************************

                    xk=(   0.35000,  -0.20207,   0.28577  )

     Band symmetry, C_s (m)     point group:

     e(  1 -  1) =     -8.49918  eV     1   --> A'             
     e(  2 -  3) =     -8.33304  eV     2   --> A'             
     e(  2 -  3) =     -8.33304  eV     2   --> A''            
     e(  4 -  4) =     -8.30662  eV     1   --> A'             
     e(  5 -  5) =     -8.26923  eV     1   --> A''            
     e(  6 -  6) =     -4.30762  eV     1   --> A'             
     e(  7 -  7) =      1.14953  eV     1   --> A'             
     e(  8 -  9) =      4.10191  eV     2   --> A'             
     e(  8 -  9) =      4.10191  eV     2   --> A''            
     e( 10 - 10) =      7.74911  eV     1   --> A'             
     e( 11 - 11) =      8.34406  eV     1   --> A'             
     e( 12 - 12) =     13.28916  eV     1   --> A'             
     e( 13 - 14) =     13.32384  eV     2   --> A'             
     e( 13 - 14) =     13.32384  eV     2   --> A''            
     e( 15 - 15) =     16.75598  eV     1   --> A''            
     e( 16 - 16) =     18.00057  eV     1   --> A'             

 **************************************************************************

 **************************************************************************

                    xk=(   0.36667,  -0.21170,   0.29938  )

     Band symmetry, C_s (m)     point group:

     e(  1 -  1) =     -8.50433  eV     1   --> A'             
     e(  2 -  3) =     -8.33038  eV     2   --> A'             
     e(  2 -  3) =     -8.33038  eV     2   --> A''            
     e(  4 -  4) =     -8.30788  eV     1   --> A'             
     e(  5 -  5) =     -8.26845  eV     1   --> A''            
     e(  6 -  6) =     -4.22026  eV     1   --> A'             
     e(  7 -  7) =      0.99507  eV     1   --> A'             
     e(  8 -  9) =      4.03807  eV     2   --> A'             
     e(  8 -  9) =      4.03807  eV     2   --> A''            
     e( 10 - 10) =      7.70048  eV     1   --> A'             
     e( 11 - 11) =      8.27842  eV     1   --> A'             
     e( 12 - 12) =     13.49048  eV     1   --> A'             
     e( 13 - 14) =     13.54767  eV     2   --> A'             
     e( 13 - 14) =     13.54767  eV     2   --> A''            
     e( 15 - 15) =     16.86235  eV     1   --> A''            
     e( 16 - 16) =     18.08496  eV     1   --> A'             

 **************************************************************************

 **************************************************************************

                    xk=(   0.38333,  -0.22132,   0.31299  )

     Band symmetry, C_s (m)     point group:

     e(  1 -  1) =     -8.50896  eV     1   --> A'             
     e(  2 -  3) =     -8.32795  eV     2   --> A'             
     e(  2 -  3) =     -8.32795  eV     2   --> A''            
     e(  4 -  4) =     -8.30905  eV     1   --> A'             
     e(  5 -  5) =     -8.26773  eV     1   --> A''            
     e(  6 -  6) =     -4.13702  eV     1   --> A'             
     e(  7 -  7) =      0.85249  eV     1   --> A'             
     e(  8 -  9) =      3.98121  eV     2   --> A'             
     e(  8 -  9) =      3.98121  eV     2   --> A''            
     e( 10 - 10) =      7.65956  eV     1   --> A'             
     e( 11 - 11) =      8.21231  eV     1   --> A'             
     e( 12 - 12) =     13.69817  eV     1   --> A'             
     e( 13 - 14) =     13.76649  eV     2   --> A'             
     e( 13 - 14) =     13.76649  eV     2   --> A''            
     e( 15 - 15) =     16.96697  eV     1   --> A''            
     e( 16 - 16) =     18.10773  eV     1   --> A'             

 **************************************************************************

 **************************************************************************

                    xk=(   0.40000,  -0.23094,   0.32660  )

     Band symmetry, C_s (m)     point group:

     e(  1 -  1) =     -8.51303  eV     1   --> A'             
     e(  2 -  3) =     -8.32567  eV     2   --> A'             
     e(  2 -  3) =     -8.32567  eV     2   --> A''            
     e(  4 -  4) =     -8.30985  eV     1   --> A'             
     e(  5 -  5) =     -8.26709  eV     1   --> A''            
     e(  6 -  6) =     -4.05954  eV     1   --> A'             
     e(  7 -  7) =      0.72346  eV     1   --> A'             
     e(  8 -  9) =      3.93154  eV     2   --> A'             
     e(  8 -  9) =      3.93154  eV     2   --> A''            
     e( 10 - 10) =      7.62610  eV     1   --> A'             
     e( 11 - 11) =      8.14867  eV     1   --> A'             
     e( 12 - 12) =     13.90621  eV     1   --> A'             
     e( 13 - 14) =     13.97734  eV     2   --> A'             
     e( 13 - 14) =     13.97734  eV     2   --> A''            
     e( 15 - 15) =     17.06769  eV     1   --> A''            
     e( 16 - 16) =     18.07377  eV     1   --> A'             

 **************************************************************************

 **************************************************************************

                    xk=(   0.41667,  -0.24056,   0.34021  )

     Band symmetry, C_s (m)     point group:

     e(  1 -  1) =     -8.51663  eV     1   --> A'             
     e(  2 -  3) =     -8.32396  eV     2   --> A'             
     e(  2 -  3) =     -8.32396  eV     2   --> A''            
     e(  4 -  4) =     -8.31076  eV     1   --> A'             
     e(  5 -  5) =     -8.26657  eV     1   --> A''            
     e(  6 -  6) =     -3.98957  eV     1   --> A'             
     e(  7 -  7) =      0.60978  eV     1   --> A'             
     e(  8 -  9) =      3.88923  eV     2   --> A'             
     e(  8 -  9) =      3.88923  eV     2   --> A''            
     e( 10 - 10) =      7.59973  eV     1   --> A'             
     e( 11 - 11) =      8.08995  eV     1   --> A'             
     e( 12 - 12) =     14.10798  eV     1   --> A'             
     e( 13 - 14) =     14.17614  eV     2   --> A'             
     e( 13 - 14) =     14.17614  eV     2   --> A''            
     e( 15 - 15) =     17.16190  eV     1   --> A''            
     e( 16 - 16) =     17.99625  eV     1   --> A'             

 **************************************************************************

 **************************************************************************

                    xk=(   0.43333,  -0.25019,   0.35382  )

     Band symmetry, C_s (m)     point group:

     e(  1 -  1) =     -8.51953  eV     1   --> A'             
     e(  2 -  3) =     -8.32238  eV     2   --> A'             
     e(  2 -  3) =     -8.32238  eV     2   --> A''            
     e(  4 -  4) =     -8.31137  eV     1   --> A'             
     e(  5 -  5) =     -8.26611  eV     1   --> A''            
     e(  6 -  6) =     -3.92894  eV     1   --> A'             
     e(  7 -  7) =      0.51332  eV     1   --> A'             
     e(  8 -  9) =      3.85443  eV     2   --> A'             
     e(  8 -  9) =      3.85443  eV     2   --> A''            
     e( 10 - 10) =      7.57990  eV     1   --> A'             
     e( 11 - 11) =      8.03831  eV     1   --> A'             
     e( 12 - 12) =     14.29575  eV     1   --> A'             
     e( 13 - 14) =     14.35733  eV     2   --> A'             
     e( 13 - 14) =     14.35733  eV     2   --> A''            
     e( 15 - 15) =     17.24647  eV     1   --> A''            
     e( 16 - 16) =     17.89327  eV     1   --> A'             

 **************************************************************************

 **************************************************************************

                    xk=(   0.45000,  -0.25981,   0.36742  )

     Band symmetry, C_s (m)     point group:

     e(  1 -  1) =     -8.52181  eV     1   --> A'             
     e(  2 -  3) =     -8.32123  eV     2   --> A'             
     e(  2 -  3) =     -8.32123  eV     2   --> A''            
     e(  4 -  4) =     -8.31226  eV     1   --> A'             
     e(  5 -  5) =     -8.26576  eV     1   --> A''            
     e(  6 -  6) =     -3.87944  eV     1   --> A'             
     e(  7 -  7) =      0.43590  eV     1   --> A'             
     e(  8 -  9) =      3.82724  eV     2   --> A'             
     e(  8 -  9) =      3.82724  eV     2   --> A''            
     e( 10 - 10) =      7.56588  eV     1   --> A'             
     e( 11 - 11) =      7.99563  eV     1   --> A'             
     e( 12 - 12) =     14.46019  eV     1   --> A'             
     e( 13 - 14) =     14.51355  eV     2   --> A'             
     e( 13 - 14) =     14.51355  eV     2   --> A''            
     e( 15 - 15) =     17.31787  eV     1   --> A''            
     e( 16 - 16) =     17.78435  eV     1   --> A'             

 **************************************************************************

 **************************************************************************

                    xk=(   0.46667,  -0.26943,   0.38103  )

     Band symmetry, C_s (m)     point group:

     e(  1 -  1) =     -8.52345  eV     1   --> A'             
     e(  2 -  3) =     -8.32033  eV     2   --> A'             
     e(  2 -  3) =     -8.32033  eV     2   --> A''            
     e(  4 -  4) =     -8.31269  eV     1   --> A'             
     e(  5 -  5) =     -8.26549  eV     1   --> A''            
     e(  6 -  6) =     -3.84271  eV     1   --> A'             
     e(  7 -  7) =      0.37920  eV     1   --> A'             
     e(  8 -  9) =      3.80776  eV     2   --> A'             
     e(  8 -  9) =      3.80776  eV     2   --> A''            
     e( 10 - 10) =      7.55682  eV     1   --> A'             
     e( 11 - 11) =      7.96364  eV     1   --> A'             
     e( 12 - 12) =     14.59038  eV     1   --> A'             
     e( 13 - 14) =     14.63580  eV     2   --> A'             
     e( 13 - 14) =     14.63580  eV     2   --> A''            
     e( 15 - 15) =     17.37240  eV     1   --> A''            
     e( 16 - 16) =     17.68847  eV     1   --> A'             

 **************************************************************************

 **************************************************************************

                    xk=(   0.48333,  -0.27905,   0.39464  )

     Band symmetry, C_s (m)     point group:

     e(  1 -  1) =     -8.52438  eV     1   --> A'             
     e(  2 -  3) =     -8.31962  eV     2   --> A'             
     e(  2 -  3) =     -8.31962  eV     2   --> A''            
     e(  4 -  4) =     -8.31290  eV     1   --> A'             
     e(  5 -  5) =     -8.26533  eV     1   --> A''            
     e(  6 -  6) =     -3.82009  eV     1   --> A'             
     e(  7 -  7) =      0.34460  eV     1   --> A'             
     e(  8 -  9) =      3.79605  eV     2   --> A'             
     e(  8 -  9) =      3.79605  eV     2   --> A''            
     e( 10 - 10) =      7.55185  eV     1   --> A'             
     e( 11 - 11) =      7.94377  eV     1   --> A'             
     e( 12 - 12) =     14.67484  eV     1   --> A'             
     e( 13 - 14) =     14.71446  eV     2   --> A'             
     e( 13 - 14) =     14.71446  eV     2   --> A''            
     e( 15 - 15) =     17.40673  eV     1   --> A''            
     e( 16 - 16) =     17.62256  eV     1   --> A'             

 **************************************************************************

 **************************************************************************

                    xk=(   0.50000,  -0.28868,   0.40825  )

     Band symmetry, C_s (m)     point group:

     e(  1 -  1) =     -8.52437  eV     1   --> A'             
     e(  2 -  3) =     -8.31916  eV     2   --> A'             
     e(  2 -  3) =     -8.31916  eV     2   --> A''            
     e(  4 -  4) =     -8.31250  eV     1   --> A'             
     e(  5 -  5) =     -8.26502  eV     1   --> A''            
     e(  6 -  6) =     -3.81242  eV     1   --> A'             
     e(  7 -  7) =      0.33296  eV     1   --> A'             
     e(  8 -  9) =      3.79214  eV     2   --> A'             
     e(  8 -  9) =      3.79214  eV     2   --> A''            
     e( 10 - 10) =      7.55029  eV     1   --> A'             
     e( 11 - 11) =      7.93704  eV     1   --> A'             
     e( 12 - 12) =     14.70422  eV     1   --> A'             
     e( 13 - 14) =     14.74171  eV     2   --> A'             
     e( 13 - 14) =     14.74171  eV     2   --> A''            
     e( 15 - 15) =     17.41848  eV     1   --> A''            
     e( 16 - 16) =     17.59904  eV     1   --> A'             

 **************************************************************************

 **************************************************************************

                    xk=(   0.50000,  -0.27905,   0.41505  )

     point group C_1 (1)    
     there are  1 classes
     the character table:

       E    
A      1.00

     the symmetry operations in each class and the name of the first element:

     E        1
                                                                 

     Band symmetry, C_1 (1)     point group:

     e(  1 -  1) =     -8.52463  eV     1   --> A              
     e(  2 -  2) =     -8.31945  eV     1   --> A              
     e(  3 -  3) =     -8.31928  eV     1   --> A              
     e(  4 -  4) =     -8.31262  eV     1   --> A              
     e(  5 -  5) =     -8.26517  eV     1   --> A              
     e(  6 -  6) =     -3.81234  eV     1   --> A              
     e(  7 -  7) =      0.33327  eV     1   --> A              
     e(  8 -  8) =      3.79032  eV     1   --> A              
     e(  9 -  9) =      3.79051  eV     1   --> A              
     e( 10 - 10) =      7.55461  eV     1   --> A              
     e( 11 - 11) =      7.94100  eV     1   --> A              
     e( 12 - 12) =     14.66205  eV     1   --> A              
     e( 13 - 13) =     14.72984  eV     1   --> A              
     e( 14 - 14) =     14.77885  eV     1   --> A              
     e( 15 - 15) =     17.41580  eV     1   --> A              
     e( 16 - 16) =     17.58636  eV     1   --> A              

 **************************************************************************

 **************************************************************************

                    xk=(   0.50000,  -0.26943,   0.42186  )

     Band symmetry, C_1 (1)     point group:

     e(  1 -  1) =     -8.52450  eV     1   --> A              
     e(  2 -  2) =     -8.31968  eV     1   --> A              
     e(  3 -  3) =     -8.31948  eV     1   --> A              
     e(  4 -  4) =     -8.31251  eV     1   --> A              
     e(  5 -  5) =     -8.26524  eV     1   --> A              
     e(  6 -  6) =     -3.81203  eV     1   --> A              
     e(  7 -  7) =      0.33419  eV     1   --> A              
     e(  8 -  8) =      3.78488  eV     1   --> A              
     e(  9 -  9) =      3.78562  eV     1   --> A              
     e( 10 - 10) =      7.56755  eV     1   --> A              
     e( 11 - 11) =      7.95287  eV     1   --> A              
     e( 12 - 12) =     14.60049  eV     1   --> A              
     e( 13 - 13) =     14.69469  eV     1   --> A              
     e( 14 - 14) =     14.82540  eV     1   --> A              
     e( 15 - 15) =     17.40694  eV     1   --> A              
     e( 16 - 16) =     17.55955  eV     1   --> A              

 **************************************************************************

 **************************************************************************

                    xk=(   0.50000,  -0.25981,   0.42866  )

     Band symmetry, C_1 (1)     point group:

     e(  1 -  1) =     -8.52428  eV     1   --> A              
     e(  2 -  2) =     -8.32002  eV     1   --> A              
     e(  3 -  3) =     -8.31973  eV     1   --> A              
     e(  4 -  4) =     -8.31241  eV     1   --> A              
     e(  5 -  5) =     -8.26563  eV     1   --> A              
     e(  6 -  6) =     -3.81153  eV     1   --> A              
     e(  7 -  7) =      0.33571  eV     1   --> A              
     e(  8 -  8) =      3.77592  eV     1   --> A              
     e(  9 -  9) =      3.77760  eV     1   --> A              
     e( 10 - 10) =      7.58902  eV     1   --> A              
     e( 11 - 11) =      7.97253  eV     1   --> A              
     e( 12 - 12) =     14.53250  eV     1   --> A              
     e( 13 - 13) =     14.63752  eV     1   --> A              
     e( 14 - 14) =     14.86855  eV     1   --> A              
     e( 15 - 15) =     17.39045  eV     1   --> A              
     e( 16 - 16) =     17.53542  eV     1   --> A              

 **************************************************************************

 **************************************************************************

                    xk=(   0.50000,  -0.25019,   0.43546  )

     Band symmetry, C_1 (1)     point group:

     e(  1 -  1) =     -8.52408  eV     1   --> A              
     e(  2 -  2) =     -8.32047  eV     1   --> A              
     e(  3 -  3) =     -8.31994  eV     1   --> A              
     e(  4 -  4) =     -8.31209  eV     1   --> A              
     e(  5 -  5) =     -8.26581  eV     1   --> A              
     e(  6 -  6) =     -3.81084  eV     1   --> A              
     e(  7 -  7) =      0.33783  eV     1   --> A              
     e(  8 -  8) =      3.76359  eV     1   --> A              
     e(  9 -  9) =      3.76658  eV     1   --> A              
     e( 10 - 10) =      7.61885  eV     1   --> A              
     e( 11 - 11) =      7.99984  eV     1   --> A              
     e( 12 - 12) =     14.45873  eV     1   --> A              
     e( 13 - 13) =     14.56025  eV     1   --> A              
     e( 14 - 14) =     14.90790  eV     1   --> A              
     e( 15 - 15) =     17.36739  eV     1   --> A              
     e( 16 - 16) =     17.52119  eV     1   --> A              

 **************************************************************************

 **************************************************************************

                    xk=(   0.50000,  -0.24056,   0.44227  )

     Band symmetry, C_1 (1)     point group:

     e(  1 -  1) =     -8.52366  eV     1   --> A              
     e(  2 -  2) =     -8.32102  eV     1   --> A              
     e(  3 -  3) =     -8.32017  eV     1   --> A              
     e(  4 -  4) =     -8.31165  eV     1   --> A              
     e(  5 -  5) =     -8.26601  eV     1   --> A              
     e(  6 -  6) =     -3.80996  eV     1   --> A              
     e(  7 -  7) =      0.34053  eV     1   --> A              
     e(  8 -  8) =      3.74809  eV     1   --> A              
     e(  9 -  9) =      3.75277  eV     1   --> A              
     e( 10 - 10) =      7.65684  eV     1   --> A              
     e( 11 - 11) =      8.03456  eV     1   --> A              
     e( 12 - 12) =     14.37929  eV     1   --> A              
     e( 13 - 13) =     14.46516  eV     1   --> A              
     e( 14 - 14) =     14.94368  eV     1   --> A              
     e( 15 - 15) =     17.34177  eV     1   --> A              
     e( 16 - 16) =     17.51591  eV     1   --> A              

 **************************************************************************

 **************************************************************************

                    xk=(   0.50000,  -0.23094,   0.44907  )

     Band symmetry, C_1 (1)     point group:

     e(  1 -  1) =     -8.52331  eV     1   --> A              
     e(  2 -  2) =     -8.32180  eV     1   --> A              
     e(  3 -  3) =     -8.32049  eV     1   --> A              
     e(  4 -  4) =     -8.31121  eV     1   --> A              
     e(  5 -  5) =     -8.26627  eV     1   --> A              
     e(  6 -  6) =     -3.80890  eV     1   --> A              
     e(  7 -  7) =      0.34378  eV     1   --> A              
     e(  8 -  8) =      3.72968  eV     1   --> A              
     e(  9 -  9) =      3.73642  eV     1   --> A              
     e( 10 - 10) =      7.70273  eV     1   --> A              
     e( 11 - 11) =      8.07643  eV     1   --> A              
     e( 12 - 12) =     14.29432  eV     1   --> A              
     e( 13 - 13) =     14.35469  eV     1   --> A              
     e( 14 - 14) =     14.97618  eV     1   --> A              
     e( 15 - 15) =     17.31731  eV     1   --> A              
     e( 16 - 16) =     17.51661  eV     1   --> A              

 **************************************************************************

 **************************************************************************

                    xk=(   0.50000,  -0.22132,   0.45588  )

     Band symmetry, C_1 (1)     point group:

     e(  1 -  1) =     -8.52271  eV     1   --> A              
     e(  2 -  2) =     -8.32257  eV     1   --> A              
     e(  3 -  3) =     -8.32075  eV     1   --> A              
     e(  4 -  4) =     -8.31062  eV     1   --> A              
     e(  5 -  5) =     -8.26646  eV     1   --> A              
     e(  6 -  6) =     -3.80767  eV     1   --> A              
     e(  7 -  7) =      0.34756  eV     1   --> A              
     e(  8 -  8) =      3.70865  eV     1   --> A              
     e(  9 -  9) =      3.71782  eV     1   --> A              
     e( 10 - 10) =      7.75626  eV     1   --> A              
     e( 11 - 11) =      8.12513  eV     1   --> A              
     e( 12 - 12) =     14.20397  eV     1   --> A              
     e( 13 - 13) =     14.23122  eV     1   --> A              
     e( 14 - 14) =     15.00574  eV     1   --> A              
     e( 15 - 15) =     17.29593  eV     1   --> A              
     e( 16 - 16) =     17.52117  eV     1   --> A              

 **************************************************************************

 **************************************************************************

                    xk=(   0.50000,  -0.21170,   0.46268  )

     Band symmetry, C_1 (1)     point group:

     e(  1 -  1) =     -8.52200  eV     1   --> A              
     e(  2 -  2) =     -8.32350  eV     1   --> A              
     e(  3 -  3) =     -8.32111  eV     1   --> A              
     e(  4 -  4) =     -8.31003  eV     1   --> A              
     e(  5 -  5) =     -8.26676  eV     1   --> A              
     e(  6 -  6) =     -3.80629  eV     1   --> A              
     e(  7 -  7) =      0.35183  eV     1   --> A              
     e(  8 -  8) =      3.68530  eV     1   --> A              
     e(  9 -  9) =      3.69727  eV     1   --> A              
     e( 10 - 10) =      7.81709  eV     1   --> A              
     e( 11 - 11) =      8.18030  eV     1   --> A              
     e( 12 - 12) =     14.09694  eV     1   --> A              
     e( 13 - 13) =     14.10849  eV     1   --> A              
     e( 14 - 14) =     15.03266  eV     1   --> A              
     e( 15 - 15) =     17.27815  eV     1   --> A              
     e( 16 - 16) =     17.52838  eV     1   --> A              

 **************************************************************************

 **************************************************************************

                    xk=(   0.50000,  -0.20207,   0.46949  )

     Band symmetry, C_1 (1)     point group:

     e(  1 -  1) =     -8.52126  eV     1   --> A              
     e(  2 -  2) =     -8.32447  eV     1   --> A              
     e(  3 -  3) =     -8.32137  eV     1   --> A              
     e(  4 -  4) =     -8.30938  eV     1   --> A              
     e(  5 -  5) =     -8.26711  eV     1   --> A              
     e(  6 -  6) =     -3.80477  eV     1   --> A              
     e(  7 -  7) =      0.35655  eV     1   --> A              
     e(  8 -  8) =      3.65997  eV     1   --> A              
     e(  9 -  9) =      3.67510  eV     1   --> A              
     e( 10 - 10) =      7.88490  eV     1   --> A              
     e( 11 - 11) =      8.24156  eV     1   --> A              
     e( 12 - 12) =     13.95383  eV     1   --> A              
     e( 13 - 13) =     14.00816  eV     1   --> A              
     e( 14 - 14) =     15.05725  eV     1   --> A              
     e( 15 - 15) =     17.26393  eV     1   --> A              
     e( 16 - 16) =     17.53759  eV     1   --> A              

 **************************************************************************

 **************************************************************************

                    xk=(   0.50000,  -0.19245,   0.47629  )

     Band symmetry, C_1 (1)     point group:

     e(  1 -  1) =     -8.52035  eV     1   --> A              
     e(  2 -  2) =     -8.32532  eV     1   --> A              
     e(  3 -  3) =     -8.32159  eV     1   --> A              
     e(  4 -  4) =     -8.30864  eV     1   --> A              
     e(  5 -  5) =     -8.26730  eV     1   --> A              
     e(  6 -  6) =     -3.80312  eV     1   --> A              
     e(  7 -  7) =      0.36169  eV     1   --> A              
     e(  8 -  8) =      3.63302  eV     1   --> A              
     e(  9 -  9) =      3.65163  eV     1   --> A              
     e( 10 - 10) =      7.95935  eV     1   --> A              
     e( 11 - 11) =      8.30852  eV     1   --> A              
     e( 12 - 12) =     13.80357  eV     1   --> A              
     e( 13 - 13) =     13.90337  eV     1   --> A              
     e( 14 - 14) =     15.07977  eV     1   --> A              
     e( 15 - 15) =     17.25292  eV     1   --> A              
     e( 16 - 16) =     17.54838  eV     1   --> A              

 **************************************************************************

 **************************************************************************

                    xk=(   0.50000,  -0.18283,   0.48309  )

     Band symmetry, C_1 (1)     point group:

     e(  1 -  1) =     -8.51948  eV     1   --> A              
     e(  2 -  2) =     -8.32645  eV     1   --> A              
     e(  3 -  3) =     -8.32184  eV     1   --> A              
     e(  4 -  4) =     -8.30793  eV     1   --> A              
     e(  5 -  5) =     -8.26772  eV     1   --> A              
     e(  6 -  6) =     -3.80137  eV     1   --> A              
     e(  7 -  7) =      0.36719  eV     1   --> A              
     e(  8 -  8) =      3.60478  eV     1   --> A              
     e(  9 -  9) =      3.62719  eV     1   --> A              
     e( 10 - 10) =      8.04010  eV     1   --> A              
     e( 11 - 11) =      8.38073  eV     1   --> A              
     e( 12 - 12) =     13.64762  eV     1   --> A              
     e( 13 - 13) =     13.79451  eV     1   --> A              
     e( 14 - 14) =     15.10045  eV     1   --> A              
     e( 15 - 15) =     17.24469  eV     1   --> A              
     e( 16 - 16) =     17.56048  eV     1   --> A              

 **************************************************************************

 **************************************************************************

                    xk=(   0.50000,  -0.17321,   0.48990  )

     Band symmetry, C_1 (1)     point group:

     e(  1 -  1) =     -8.51849  eV     1   --> A              
     e(  2 -  2) =     -8.32764  eV     1   --> A              
     e(  3 -  3) =     -8.32207  eV     1   --> A              
     e(  4 -  4) =     -8.30717  eV     1   --> A              
     e(  5 -  5) =     -8.26815  eV     1   --> A              
     e(  6 -  6) =     -3.79953  eV     1   --> A              
     e(  7 -  7) =      0.37301  eV     1   --> A              
     e(  8 -  8) =      3.57562  eV     1   --> A              
     e(  9 -  9) =      3.60210  eV     1   --> A              
     e( 10 - 10) =      8.12683  eV     1   --> A              
     e( 11 - 11) =      8.45776  eV     1   --> A              
     e( 12 - 12) =     13.48719  eV     1   --> A              
     e( 13 - 13) =     13.68206  eV     1   --> A              
     e( 14 - 14) =     15.11949  eV     1   --> A              
     e( 15 - 15) =     17.23883  eV     1   --> A              
     e( 16 - 16) =     17.57367  eV     1   --> A              

 **************************************************************************

 **************************************************************************

                    xk=(   0.50000,  -0.16358,   0.49670  )

     Band symmetry, C_1 (1)     point group:

     e(  1 -  1) =     -8.51754  eV     1   --> A              
     e(  2 -  2) =     -8.32888  eV     1   --> A              
     e(  3 -  3) =     -8.32230  eV     1   --> A              
     e(  4 -  4) =     -8.30644  eV     1   --> A              
     e(  5 -  5) =     -8.26871  eV     1   --> A              
     e(  6 -  6) =     -3.79763  eV     1   --> A              
     e(  7 -  7) =      0.37908  eV     1   --> A              
     e(  8 -  8) =      3.54587  eV     1   --> A              
     e(  9 -  9) =      3.57666  eV     1   --> A              
     e( 10 - 10) =      8.21919  eV     1   --> A              
     e( 11 - 11) =      8.53914  eV     1   --> A              
     e( 12 - 12) =     13.32330  eV     1   --> A              
     e( 13 - 13) =     13.56651  eV     1   --> A              
     e( 14 - 14) =     15.13708  eV     1   --> A              
     e( 15 - 15) =     17.23496  eV     1   --> A              
     e( 16 - 16) =     17.58777  eV     1   --> A              

 **************************************************************************

 **************************************************************************

                    xk=(   0.50000,  -0.15396,   0.50351  )

     Band symmetry, C_1 (1)     point group:

     e(  1 -  1) =     -8.51654  eV     1   --> A              
     e(  2 -  2) =     -8.33017  eV     1   --> A              
     e(  3 -  3) =     -8.32251  eV     1   --> A              
     e(  4 -  4) =     -8.30566  eV     1   --> A              
     e(  5 -  5) =     -8.26922  eV     1   --> A              
     e(  6 -  6) =     -3.79569  eV     1   --> A              
     e(  7 -  7) =      0.38535  eV     1   --> A              
     e(  8 -  8) =      3.51588  eV     1   --> A              
     e(  9 -  9) =      3.55118  eV     1   --> A              
     e( 10 - 10) =      8.31688  eV     1   --> A              
     e( 11 - 11) =      8.62440  eV     1   --> A              
     e( 12 - 12) =     13.15683  eV     1   --> A              
     e( 13 - 13) =     13.44842  eV     1   --> A              
     e( 14 - 14) =     15.15335  eV     1   --> A              
     e( 15 - 15) =     17.23274  eV     1   --> A              
     e( 16 - 16) =     17.60261  eV     1   --> A              

 **************************************************************************

 **************************************************************************

                    xk=(   0.50000,  -0.14434,   0.51031  )

     Band symmetry, C_1 (1)     point group:

     e(  1 -  1) =     -8.51551  eV     1   --> A              
     e(  2 -  2) =     -8.33148  eV     1   --> A              
     e(  3 -  3) =     -8.32271  eV     1   --> A              
     e(  4 -  4) =     -8.30488  eV     1   --> A              
     e(  5 -  5) =     -8.26975  eV     1   --> A              
     e(  6 -  6) =     -3.79372  eV     1   --> A              
     e(  7 -  7) =      0.39176  eV     1   --> A              
     e(  8 -  8) =      3.48596  eV     1   --> A              
     e(  9 -  9) =      3.52593  eV     1   --> A              
     e( 10 - 10) =      8.41958  eV     1   --> A              
     e( 11 - 11) =      8.71302  eV     1   --> A              
     e( 12 - 12) =     12.98851  eV     1   --> A              
     e( 13 - 13) =     13.32836  eV     1   --> A              
     e( 14 - 14) =     15.16843  eV     1   --> A              
     e( 15 - 15) =     17.23187  eV     1   --> A              
     e( 16 - 16) =     17.61801  eV     1   --> A              

 **************************************************************************

 **************************************************************************

                    xk=(   0.50000,  -0.13472,   0.51711  )

     Band symmetry, C_1 (1)     point group:

     e(  1 -  1) =     -8.51455  eV     1   --> A              
     e(  2 -  2) =     -8.33288  eV     1   --> A              
     e(  3 -  3) =     -8.32296  eV     1   --> A              
     e(  4 -  4) =     -8.30410  eV     1   --> A              
     e(  5 -  5) =     -8.27031  eV     1   --> A              
     e(  6 -  6) =     -3.79176  eV     1   --> A              
     e(  7 -  7) =      0.39823  eV     1   --> A              
     e(  8 -  8) =      3.45643  eV     1   --> A              
     e(  9 -  9) =      3.50117  eV     1   --> A              
     e( 10 - 10) =      8.52700  eV     1   --> A              
     e( 11 - 11) =      8.80447  eV     1   --> A              
     e( 12 - 12) =     12.81894  eV     1   --> A              
     e( 13 - 13) =     13.20696  eV     1   --> A              
     e( 14 - 14) =     15.18239  eV     1   --> A              
     e( 15 - 15) =     17.23209  eV     1   --> A              
     e( 16 - 16) =     17.63321  eV     1   --> A              

 **************************************************************************

 **************************************************************************

                    xk=(   0.50000,  -0.12509,   0.52392  )

     Band symmetry, C_1 (1)     point group:

     e(  1 -  1) =     -8.51345  eV     1   --> A              
     e(  2 -  2) =     -8.33409  eV     1   --> A              
     e(  3 -  3) =     -8.32300  eV     1   --> A              
     e(  4 -  4) =     -8.30317  eV     1   --> A              
     e(  5 -  5) =     -8.27086  eV     1   --> A              
     e(  6 -  6) =     -3.78980  eV     1   --> A              
     e(  7 -  7) =      0.40470  eV     1   --> A              
     e(  8 -  8) =      3.42759  eV     1   --> A              
     e(  9 -  9) =      3.47714  eV     1   --> A              
     e( 10 - 10) =      8.63886  eV     1   --> A              
     e( 11 - 11) =      8.89817  eV     1   --> A              
     e( 12 - 12) =     12.64868  eV     1   --> A              
     e( 13 - 13) =     13.08490  eV     1   --> A              
     e( 14 - 14) =     15.19533  eV     1   --> A              
     e( 15 - 15) =     17.23318  eV     1   --> A              
     e( 16 - 16) =     17.60960  eV     1   --> A              

 **************************************************************************

 **************************************************************************

                    xk=(   0.50000,  -0.11547,   0.53072  )

     Band symmetry, C_1 (1)     point group:

     e(  1 -  1) =     -8.51253  eV     1   --> A              
     e(  2 -  2) =     -8.33546  eV     1   --> A              
     e(  3 -  3) =     -8.32319  eV     1   --> A              
     e(  4 -  4) =     -8.30241  eV     1   --> A              
     e(  5 -  5) =     -8.27144  eV     1   --> A              
     e(  6 -  6) =     -3.78790  eV     1   --> A              
     e(  7 -  7) =      0.41108  eV     1   --> A              
     e(  8 -  8) =      3.39971  eV     1   --> A              
     e(  9 -  9) =      3.45405  eV     1   --> A              
     e( 10 - 10) =      8.75486  eV     1   --> A              
     e( 11 - 11) =      8.99348  eV     1   --> A              
     e( 12 - 12) =     12.47819  eV     1   --> A              
     e( 13 - 13) =     12.96289  eV     1   --> A              
     e( 14 - 14) =     15.20728  eV     1   --> A              
     e( 15 - 15) =     17.23491  eV     1   --> A              
     e( 16 - 16) =     17.58727  eV     1   --> A              

 **************************************************************************

 **************************************************************************

                    xk=(   0.50000,  -0.10585,   0.53753  )

     Band symmetry, C_1 (1)     point group:

     e(  1 -  1) =     -8.51147  eV     1   --> A              
     e(  2 -  2) =     -8.33665  eV     1   --> A              
     e(  3 -  3) =     -8.32333  eV     1   --> A              
     e(  4 -  4) =     -8.30162  eV     1   --> A              
     e(  5 -  5) =     -8.27194  eV     1   --> A              
     e(  6 -  6) =     -3.78604  eV     1   --> A              
     e(  7 -  7) =      0.41732  eV     1   --> A              
     e(  8 -  8) =      3.37305  eV     1   --> A              
     e(  9 -  9) =      3.43211  eV     1   --> A              
     e( 10 - 10) =      8.87472  eV     1   --> A              
     e( 11 - 11) =      9.08968  eV     1   --> A              
     e( 12 - 12) =     12.30791  eV     1   --> A              
     e( 13 - 13) =     12.84176  eV     1   --> A              
     e( 14 - 14) =     15.21829  eV     1   --> A              
     e( 15 - 15) =     17.23713  eV     1   --> A              
     e( 16 - 16) =     17.56632  eV     1   --> A              

 **************************************************************************

 **************************************************************************

                    xk=(   0.50000,  -0.09623,   0.54433  )

     Band symmetry, C_1 (1)     point group:

     e(  1 -  1) =     -8.51048  eV     1   --> A              
     e(  2 -  2) =     -8.33790  eV     1   --> A              
     e(  3 -  3) =     -8.32347  eV     1   --> A              
     e(  4 -  4) =     -8.30085  eV     1   --> A              
     e(  5 -  5) =     -8.27253  eV     1   --> A              
     e(  6 -  6) =     -3.78428  eV     1   --> A              
     e(  7 -  7) =      0.42333  eV     1   --> A              
     e(  8 -  8) =      3.34786  eV     1   --> A              
     e(  9 -  9) =      3.41150  eV     1   --> A              
     e( 10 - 10) =      8.99816  eV     1   --> A              
     e( 11 - 11) =      9.18594  eV     1   --> A              
     e( 12 - 12) =     12.13822  eV     1   --> A              
     e( 13 - 13) =     12.72241  eV     1   --> A              
     e( 14 - 14) =     15.22837  eV     1   --> A              
     e( 15 - 15) =     17.23967  eV     1   --> A              
     e( 16 - 16) =     17.54686  eV     1   --> A              

 **************************************************************************

 **************************************************************************

                    xk=(   0.50000,  -0.08660,   0.55114  )

     Band symmetry, C_1 (1)     point group:

     e(  1 -  1) =     -8.50961  eV     1   --> A              
     e(  2 -  2) =     -8.33912  eV     1   --> A              
     e(  3 -  3) =     -8.32359  eV     1   --> A              
     e(  4 -  4) =     -8.30014  eV     1   --> A              
     e(  5 -  5) =     -8.27319  eV     1   --> A              
     e(  6 -  6) =     -3.78262  eV     1   --> A              
     e(  7 -  7) =      0.42904  eV     1   --> A              
     e(  8 -  8) =      3.32436  eV     1   --> A              
     e(  9 -  9) =      3.39239  eV     1   --> A              
     e( 10 - 10) =      9.12485  eV     1   --> A              
     e( 11 - 11) =      9.28131  eV     1   --> A              
     e( 12 - 12) =     11.96953  eV     1   --> A              
     e( 13 - 13) =     12.60588  eV     1   --> A              
     e( 14 - 14) =     15.23753  eV     1   --> A              
     e( 15 - 15) =     17.24239  eV     1   --> A              
     e( 16 - 16) =     17.52896  eV     1   --> A              

 **************************************************************************

 **************************************************************************

                    xk=(   0.50000,  -0.07698,   0.55794  )

     Band symmetry, C_1 (1)     point group:

     e(  1 -  1) =     -8.50875  eV     1   --> A              
     e(  2 -  2) =     -8.34026  eV     1   --> A              
     e(  3 -  3) =     -8.32370  eV     1   --> A              
     e(  4 -  4) =     -8.29945  eV     1   --> A              
     e(  5 -  5) =     -8.27393  eV     1   --> A              
     e(  6 -  6) =     -3.78108  eV     1   --> A              
     e(  7 -  7) =      0.43438  eV     1   --> A              
     e(  8 -  8) =      3.30276  eV     1   --> A              
     e(  9 -  9) =      3.37491  eV     1   --> A              
     e( 10 - 10) =      9.25445  eV     1   --> A              
     e( 11 - 11) =      9.37467  eV     1   --> A              
     e( 12 - 12) =     11.80225  eV     1   --> A              
     e( 13 - 13) =     12.49339  eV     1   --> A              
     e( 14 - 14) =     15.24578  eV     1   --> A              
     e( 15 - 15) =     17.24516  eV     1   --> A              
     e( 16 - 16) =     17.51270  eV     1   --> A              

 **************************************************************************

 **************************************************************************

                    xk=(   0.50000,  -0.06736,   0.56474  )

     Band symmetry, C_1 (1)     point group:

     e(  1 -  1) =     -8.50771  eV     1   --> A              
     e(  2 -  2) =     -8.34116  eV     1   --> A              
     e(  3 -  3) =     -8.32375  eV     1   --> A              
     e(  4 -  4) =     -8.29872  eV     1   --> A              
     e(  5 -  5) =     -8.27446  eV     1   --> A              
     e(  6 -  6) =     -3.77965  eV     1   --> A              
     e(  7 -  7) =      0.43928  eV     1   --> A              
     e(  8 -  8) =      3.28325  eV     1   --> A              
     e(  9 -  9) =      3.35920  eV     1   --> A              
     e( 10 - 10) =      9.38653  eV     1   --> A              
     e( 11 - 11) =      9.46467  eV     1   --> A              
     e( 12 - 12) =     11.63686  eV     1   --> A              
     e( 13 - 13) =     12.38634  eV     1   --> A              
     e( 14 - 14) =     15.25311  eV     1   --> A              
     e( 15 - 15) =     17.24788  eV     1   --> A              
     e( 16 - 16) =     17.49818  eV     1   --> A              

 **************************************************************************

 **************************************************************************

                    xk=(   0.50000,  -0.05774,   0.57155  )

     Band symmetry, C_1 (1)     point group:

     e(  1 -  1) =     -8.50680  eV     1   --> A              
     e(  2 -  2) =     -8.34193  eV     1   --> A              
     e(  3 -  3) =     -8.32381  eV     1   --> A              
     e(  4 -  4) =     -8.29805  eV     1   --> A              
     e(  5 -  5) =     -8.27489  eV     1   --> A              
     e(  6 -  6) =     -3.77839  eV     1   --> A              
     e(  7 -  7) =      0.44367  eV     1   --> A              
     e(  8 -  8) =      3.26599  eV     1   --> A              
     e(  9 -  9) =      3.34536  eV     1   --> A              
     e( 10 - 10) =      9.52049  eV     1   --> A              
     e( 11 - 11) =      9.54969  eV     1   --> A              
     e( 12 - 12) =     11.47398  eV     1   --> A              
     e( 13 - 13) =     12.28642  eV     1   --> A              
     e( 14 - 14) =     15.25950  eV     1   --> A              
     e( 15 - 15) =     17.25044  eV     1   --> A              
     e( 16 - 16) =     17.48545  eV     1   --> A              

 **************************************************************************

 **************************************************************************

                    xk=(   0.50000,  -0.04811,   0.57835  )

     Band symmetry, C_1 (1)     point group:

     e(  1 -  1) =     -8.50615  eV     1   --> A              
     e(  2 -  2) =     -8.34274  eV     1   --> A              
     e(  3 -  3) =     -8.32388  eV     1   --> A              
     e(  4 -  4) =     -8.29749  eV     1   --> A              
     e(  5 -  5) =     -8.27536  eV     1   --> A              
     e(  6 -  6) =     -3.77730  eV     1   --> A              
     e(  7 -  7) =      0.44750  eV     1   --> A              
     e(  8 -  8) =      3.25113  eV     1   --> A              
     e(  9 -  9) =      3.33349  eV     1   --> A              
     e( 10 - 10) =      9.62781  eV     1   --> A              
     e( 11 - 11) =      9.65544  eV     1   --> A              
     e( 12 - 12) =     11.31453  eV     1   --> A              
     e( 13 - 13) =     12.19559  eV     1   --> A              
     e( 14 - 14) =     15.26494  eV     1   --> A              
     e( 15 - 15) =     17.25274  eV     1   --> A              
     e( 16 - 16) =     17.47456  eV     1   --> A              

 **************************************************************************

 **************************************************************************

                    xk=(   0.50000,  -0.03849,   0.58516  )

     Band symmetry, C_1 (1)     point group:

     e(  1 -  1) =     -8.50571  eV     1   --> A              
     e(  2 -  2) =     -8.34356  eV     1   --> A              
     e(  3 -  3) =     -8.32395  eV     1   --> A              
     e(  4 -  4) =     -8.29702  eV     1   --> A              
     e(  5 -  5) =     -8.27583  eV     1   --> A              
     e(  6 -  6) =     -3.77641  eV     1   --> A              
     e(  7 -  7) =      0.45071  eV     1   --> A              
     e(  8 -  8) =      3.23880  eV     1   --> A              
     e(  9 -  9) =      3.32368  eV     1   --> A              
     e( 10 - 10) =      9.69682  eV     1   --> A              
     e( 11 - 11) =      9.78990  eV     1   --> A              
     e( 12 - 12) =     11.16000  eV     1   --> A              
     e( 13 - 13) =     12.11611  eV     1   --> A              
     e( 14 - 14) =     15.26942  eV     1   --> A              
     e( 15 - 15) =     17.25473  eV     1   --> A              
     e( 16 - 16) =     17.46558  eV     1   --> A              

 **************************************************************************

 **************************************************************************

                    xk=(   0.50000,  -0.02887,   0.59196  )

     Band symmetry, C_1 (1)     point group:

     e(  1 -  1) =     -8.50527  eV     1   --> A              
     e(  2 -  2) =     -8.34410  eV     1   --> A              
     e(  3 -  3) =     -8.32399  eV     1   --> A              
     e(  4 -  4) =     -8.29663  eV     1   --> A              
     e(  5 -  5) =     -8.27616  eV     1   --> A              
     e(  6 -  6) =     -3.77569  eV     1   --> A              
     e(  7 -  7) =      0.45325  eV     1   --> A              
     e(  8 -  8) =      3.22910  eV     1   --> A              
     e(  9 -  9) =      3.31598  eV     1   --> A              
     e( 10 - 10) =      9.75428  eV     1   --> A              
     e( 11 - 11) =      9.92098  eV     1   --> A              
     e( 12 - 12) =     11.01330  eV     1   --> A              
     e( 13 - 13) =     12.05047  eV     1   --> A              
     e( 14 - 14) =     15.27293  eV     1   --> A              
     e( 15 - 15) =     17.25634  eV     1   --> A              
     e( 16 - 16) =     17.45854  eV     1   --> A              

 **************************************************************************

 **************************************************************************

                    xk=(   0.50000,  -0.01925,   0.59876  )

     Band symmetry, C_1 (1)     point group:

     e(  1 -  1) =     -8.50491  eV     1   --> A              
     e(  2 -  2) =     -8.34446  eV     1   --> A              
     e(  3 -  3) =     -8.32398  eV     1   --> A              
     e(  4 -  4) =     -8.29625  eV     1   --> A              
     e(  5 -  5) =     -8.27637  eV     1   --> A              
     e(  6 -  6) =     -3.77517  eV     1   --> A              
     e(  7 -  7) =      0.45510  eV     1   --> A              
     e(  8 -  8) =      3.22212  eV     1   --> A              
     e(  9 -  9) =      3.31044  eV     1   --> A              
     e( 10 - 10) =      9.79769  eV     1   --> A              
     e( 11 - 11) =     10.04237  eV     1   --> A              
     e( 12 - 12) =     10.88075  eV     1   --> A              
     e( 13 - 13) =     12.00120  eV     1   --> A              
     e( 14 - 14) =     15.27544  eV     1   --> A              
     e( 15 - 15) =     17.25752  eV     1   --> A              
     e( 16 - 16) =     17.45349  eV     1   --> A              

 **************************************************************************

 **************************************************************************

                    xk=(   0.50000,  -0.00962,   0.60557  )

     Band symmetry, C_1 (1)     point group:

     e(  1 -  1) =     -8.50446  eV     1   --> A              
     e(  2 -  2) =     -8.34446  eV     1   --> A              
     e(  3 -  3) =     -8.32392  eV     1   --> A              
     e(  4 -  4) =     -8.29599  eV     1   --> A              
     e(  5 -  5) =     -8.27626  eV     1   --> A              
     e(  6 -  6) =     -3.77484  eV     1   --> A              
     e(  7 -  7) =      0.45622  eV     1   --> A              
     e(  8 -  8) =      3.21790  eV     1   --> A              
     e(  9 -  9) =      3.30711  eV     1   --> A              
[...]

 **************************************************************************

                    xk=(   0.44167,  -0.05292,   0.49779  )

     Band symmetry, C_1 (1)     point group:

     e(  1 -  1) =     -8.50652  eV     1   --> A              
     e(  2 -  2) =     -8.34048  eV     1   --> A              
     e(  3 -  3) =     -8.32549  eV     1   --> A              
     e(  4 -  4) =     -8.29976  eV     1   --> A              
     e(  5 -  5) =     -8.27323  eV     1   --> A              
     e(  6 -  6) =     -3.85201  eV     1   --> A              
     e(  7 -  7) =      0.50859  eV     1   --> A              
     e(  8 -  8) =      3.25489  eV     1   --> A              
     e(  9 -  9) =      3.61797  eV     1   --> A              
     e( 10 - 10) =      9.13070  eV     1   --> A              
     e( 11 - 11) =      9.26001  eV     1   --> A              
     e( 12 - 12) =     11.50402  eV     1   --> A              
     e( 13 - 13) =     13.19426  eV     1   --> A              
     e( 14 - 14) =     14.75936  eV     1   --> A              
     e( 15 - 15) =     16.72400  eV     1   --> A              
     e( 16 - 16) =     17.80057  eV     1   --> A              

 **************************************************************************

 **************************************************************************

                    xk=(   0.44583,  -0.06976,   0.49139  )

     Band symmetry, C_1 (1)     point group:

     e(  1 -  1) =     -8.50821  eV     1   --> A              
     e(  2 -  2) =     -8.33851  eV     1   --> A              
     e(  3 -  3) =     -8.32498  eV     1   --> A              
     e(  4 -  4) =     -8.30088  eV     1   --> A              
     e(  5 -  5) =     -8.27224  eV     1   --> A              
     e(  6 -  6) =     -3.84841  eV     1   --> A              
     e(  7 -  7) =      0.49567  eV     1   --> A              
     e(  8 -  8) =      3.30704  eV     1   --> A              
     e(  9 -  9) =      3.60878  eV     1   --> A              
     e( 10 - 10) =      8.94107  eV     1   --> A              
     e( 11 - 11) =      9.12737  eV     1   --> A              
     e( 12 - 12) =     11.76544  eV     1   --> A              
     e( 13 - 13) =     13.31918  eV     1   --> A              
     e( 14 - 14) =     14.81945  eV     1   --> A              
     e( 15 - 15) =     16.81781  eV     1   --> A              
     e( 16 - 16) =     17.73603  eV     1   --> A              

 **************************************************************************

 **************************************************************************

                    xk=(   0.45000,  -0.08660,   0.48500  )

     Band symmetry, C_1 (1)     point group:

     e(  1 -  1) =     -8.51010  eV     1   --> A              
     e(  2 -  2) =     -8.33651  eV     1   --> A              
     e(  3 -  3) =     -8.32452  eV     1   --> A              
     e(  4 -  4) =     -8.30214  eV     1   --> A              
     e(  5 -  5) =     -8.27137  eV     1   --> A              
     e(  6 -  6) =     -3.84462  eV     1   --> A              
     e(  7 -  7) =      0.48099  eV     1   --> A              
     e(  8 -  8) =      3.36035  eV     1   --> A              
     e(  9 -  9) =      3.60666  eV     1   --> A              
     e( 10 - 10) =      8.75798  eV     1   --> A              
     e( 11 - 11) =      8.99046  eV     1   --> A              
     e( 12 - 12) =     12.03872  eV     1   --> A              
     e( 13 - 13) =     13.44696  eV     1   --> A              
     e( 14 - 14) =     14.87195  eV     1   --> A              
     e( 15 - 15) =     16.90599  eV     1   --> A              
     e( 16 - 16) =     17.67504  eV     1   --> A              

 **************************************************************************

 **************************************************************************

                    xk=(   0.45417,  -0.10344,   0.47860  )

     Band symmetry, C_1 (1)     point group:

     e(  1 -  1) =     -8.51197  eV     1   --> A              
     e(  2 -  2) =     -8.33434  eV     1   --> A              
     e(  3 -  3) =     -8.32400  eV     1   --> A              
     e(  4 -  4) =     -8.30335  eV     1   --> A              
     e(  5 -  5) =     -8.27052  eV     1   --> A              
     e(  6 -  6) =     -3.84071  eV     1   --> A              
     e(  7 -  7) =      0.46496  eV     1   --> A              
     e(  8 -  8) =      3.41414  eV     1   --> A              
     e(  9 -  9) =      3.61109  eV     1   --> A              
     e( 10 - 10) =      8.58358  eV     1   --> A              
     e( 11 - 11) =      8.85283  eV     1   --> A              
     e( 12 - 12) =     12.31943  eV     1   --> A              
     e( 13 - 13) =     13.57603  eV     1   --> A              
     e( 14 - 14) =     14.91630  eV     1   --> A              
     e( 15 - 15) =     16.98769  eV     1   --> A              
     e( 16 - 16) =     17.61983  eV     1   --> A              

 **************************************************************************

 **************************************************************************

                    xk=(   0.45833,  -0.12028,   0.47221  )

     Band symmetry, C_1 (1)     point group:

     e(  1 -  1) =     -8.51379  eV     1   --> A              
     e(  2 -  2) =     -8.33224  eV     1   --> A              
     e(  3 -  3) =     -8.32353  eV     1   --> A              
     e(  4 -  4) =     -8.30464  eV     1   --> A              
     e(  5 -  5) =     -8.26973  eV     1   --> A              
     e(  6 -  6) =     -3.83677  eV     1   --> A              
     e(  7 -  7) =      0.44804  eV     1   --> A              
     e(  8 -  8) =      3.46764  eV     1   --> A              
     e(  9 -  9) =      3.62138  eV     1   --> A              
     e( 10 - 10) =      8.41913  eV     1   --> A              
     e( 11 - 11) =      8.71760  eV     1   --> A              
     e( 12 - 12) =     12.60406  eV     1   --> A              
     e( 13 - 13) =     13.70509  eV     1   --> A              
     e( 14 - 14) =     14.95194  eV     1   --> A              
     e( 15 - 15) =     17.06190  eV     1   --> A              
     e( 16 - 16) =     17.57252  eV     1   --> A              

 **************************************************************************

 **************************************************************************

                    xk=(   0.46250,  -0.13712,   0.46581  )

     Band symmetry, C_1 (1)     point group:

     e(  1 -  1) =     -8.51562  eV     1   --> A              
     e(  2 -  2) =     -8.33016  eV     1   --> A              
     e(  3 -  3) =     -8.32304  eV     1   --> A              
     e(  4 -  4) =     -8.30586  eV     1   --> A              
     e(  5 -  5) =     -8.26896  eV     1   --> A              
     e(  6 -  6) =     -3.83289  eV     1   --> A              
     e(  7 -  7) =      0.43071  eV     1   --> A              
     e(  8 -  8) =      3.52003  eV     1   --> A              
     e(  9 -  9) =      3.63661  eV     1   --> A              
     e( 10 - 10) =      8.26571  eV     1   --> A              
     e( 11 - 11) =      8.58733  eV     1   --> A              
     e( 12 - 12) =     12.88945  eV     1   --> A              
     e( 13 - 13) =     13.83300  eV     1   --> A              
     e( 14 - 14) =     14.97824  eV     1   --> A              
     e( 15 - 15) =     17.12737  eV     1   --> A              
     e( 16 - 16) =     17.53516  eV     1   --> A              

 **************************************************************************

 **************************************************************************

                    xk=(   0.46667,  -0.15396,   0.45942  )

     Band symmetry, C_1 (1)     point group:

     e(  1 -  1) =     -8.51735  eV     1   --> A              
     e(  2 -  2) =     -8.32814  eV     1   --> A              
     e(  3 -  3) =     -8.32251  eV     1   --> A              
     e(  4 -  4) =     -8.30703  eV     1   --> A              
     e(  5 -  5) =     -8.26816  eV     1   --> A              
     e(  6 -  6) =     -3.82913  eV     1   --> A              
     e(  7 -  7) =      0.41350  eV     1   --> A              
     e(  8 -  8) =      3.57038  eV     1   --> A              
     e(  9 -  9) =      3.65573  eV     1   --> A              
     e( 10 - 10) =      8.12437  eV     1   --> A              
     e( 11 - 11) =      8.46420  eV     1   --> A              
     e( 12 - 12) =     13.17234  eV     1   --> A              
     e( 13 - 13) =     13.95882  eV     1   --> A              
     e( 14 - 14) =     14.99457  eV     1   --> A              
     e( 15 - 15) =     17.18280  eV     1   --> A              
     e( 16 - 16) =     17.50947  eV     1   --> A              

 **************************************************************************

 **************************************************************************

                    xk=(   0.47083,  -0.17080,   0.45302  )

     Band symmetry, C_1 (1)     point group:

     e(  1 -  1) =     -8.51903  eV     1   --> A              
     e(  2 -  2) =     -8.32627  eV     1   --> A              
     e(  3 -  3) =     -8.32205  eV     1   --> A              
     e(  4 -  4) =     -8.30818  eV     1   --> A              
     e(  5 -  5) =     -8.26757  eV     1   --> A              
     e(  6 -  6) =     -3.82560  eV     1   --> A              
     e(  7 -  7) =      0.39691  eV     1   --> A              
     e(  8 -  8) =      3.61773  eV     1   --> A              
     e(  9 -  9) =      3.67755  eV     1   --> A              
     e( 10 - 10) =      7.99616  eV     1   --> A              
     e( 11 - 11) =      8.35013  eV     1   --> A              
     e( 12 - 12) =     13.44891  eV     1   --> A              
     e( 13 - 13) =     14.08179  eV     1   --> A              
     e( 14 - 14) =     15.00038  eV     1   --> A              
     e( 15 - 15) =     17.22754  eV     1   --> A              
     e( 16 - 16) =     17.49607  eV     1   --> A              

 **************************************************************************

 **************************************************************************

                    xk=(   0.47500,  -0.18764,   0.44662  )

     Band symmetry, C_1 (1)     point group:

     e(  1 -  1) =     -8.52050  eV     1   --> A              
     e(  2 -  2) =     -8.32458  eV     1   --> A              
     e(  3 -  3) =     -8.32154  eV     1   --> A              
     e(  4 -  4) =     -8.30929  eV     1   --> A              
     e(  5 -  5) =     -8.26700  eV     1   --> A              
     e(  6 -  6) =     -3.82236  eV     1   --> A              
     e(  7 -  7) =      0.38142  eV     1   --> A              
     e(  8 -  8) =      3.66112  eV     1   --> A              
     e(  9 -  9) =      3.70076  eV     1   --> A              
     e( 10 - 10) =      7.88214  eV     1   --> A              
     e( 11 - 11) =      8.24689  eV     1   --> A              
     e( 12 - 12) =     13.71443  eV     1   --> A              
     e( 13 - 13) =     14.20138  eV     1   --> A              
     e( 14 - 14) =     14.99521  eV     1   --> A              
     e( 15 - 15) =     17.26314  eV     1   --> A              
     e( 16 - 16) =     17.49331  eV     1   --> A              

 **************************************************************************

 **************************************************************************

                    xk=(   0.47917,  -0.20448,   0.44023  )

     Band symmetry, C_1 (1)     point group:

     e(  1 -  1) =     -8.52188  eV     1   --> A              
     e(  2 -  2) =     -8.32311  eV     1   --> A              
     e(  3 -  3) =     -8.32105  eV     1   --> A              
     e(  4 -  4) =     -8.31032  eV     1   --> A              
     e(  5 -  5) =     -8.26658  eV     1   --> A              
     e(  6 -  6) =     -3.81948  eV     1   --> A              
     e(  7 -  7) =      0.36750  eV     1   --> A              
     e(  8 -  8) =      3.69956  eV     1   --> A              
     e(  9 -  9) =      3.72397  eV     1   --> A              
     e( 10 - 10) =      7.78339  eV     1   --> A              
     e( 11 - 11) =      8.15614  eV     1   --> A              
     e( 12 - 12) =     13.96267  eV     1   --> A              
     e( 13 - 13) =     14.31745  eV     1   --> A              
     e( 14 - 14) =     14.97878  eV     1   --> A              
     e( 15 - 15) =     17.29386  eV     1   --> A              
     e( 16 - 16) =     17.49736  eV     1   --> A              

 **************************************************************************

 **************************************************************************

                    xk=(   0.48333,  -0.22132,   0.43383  )

     Band symmetry, C_1 (1)     point group:

     e(  1 -  1) =     -8.52299  eV     1   --> A              
     e(  2 -  2) =     -8.32189  eV     1   --> A              
     e(  3 -  3) =     -8.32059  eV     1   --> A              
     e(  4 -  4) =     -8.31124  eV     1   --> A              
     e(  5 -  5) =     -8.26624  eV     1   --> A              
     e(  6 -  6) =     -3.81704  eV     1   --> A              
     e(  7 -  7) =      0.35553  eV     1   --> A              
     e(  8 -  8) =      3.73216  eV     1   --> A              
     e(  9 -  9) =      3.74575  eV     1   --> A              
     e( 10 - 10) =      7.70092  eV     1   --> A              
     e( 11 - 11) =      8.07941  eV     1   --> A              
     e( 12 - 12) =     14.18539  eV     1   --> A              
     e( 13 - 13) =     14.43027  eV     1   --> A              
     e( 14 - 14) =     14.95095  eV     1   --> A              
     e( 15 - 15) =     17.32475  eV     1   --> A              
     e( 16 - 16) =     17.50491  eV     1   --> A              

 **************************************************************************

 **************************************************************************

                    xk=(   0.48750,  -0.23816,   0.42744  )

     Band symmetry, C_1 (1)     point group:

     e(  1 -  1) =     -8.52372  eV     1   --> A              
     e(  2 -  2) =     -8.32087  eV     1   --> A              
     e(  3 -  3) =     -8.32014  eV     1   --> A              
     e(  4 -  4) =     -8.31195  eV     1   --> A              
     e(  5 -  5) =     -8.26587  eV     1   --> A              
     e(  6 -  6) =     -3.81506  eV     1   --> A              
     e(  7 -  7) =      0.34586  eV     1   --> A              
     e(  8 -  8) =      3.75816  eV     1   --> A              
     e(  9 -  9) =      3.76469  eV     1   --> A              
     e( 10 - 10) =      7.63568  eV     1   --> A              
     e( 11 - 11) =      8.01810  eV     1   --> A              
     e( 12 - 12) =     14.37286  eV     1   --> A              
     e( 13 - 13) =     14.53978  eV     1   --> A              
     e( 14 - 14) =     14.91177  eV     1   --> A              
     e( 15 - 15) =     17.35829  eV     1   --> A              
     e( 16 - 16) =     17.51666  eV     1   --> A              

 **************************************************************************

 **************************************************************************

                    xk=(   0.49167,  -0.25500,   0.42104  )

     Band symmetry, C_1 (1)     point group:

     e(  1 -  1) =     -8.52419  eV     1   --> A              
     e(  2 -  2) =     -8.32003  eV     1   --> A              
     e(  3 -  3) =     -8.31969  eV     1   --> A              
     e(  4 -  4) =     -8.31247  eV     1   --> A              
     e(  5 -  5) =     -8.26558  eV     1   --> A              
     e(  6 -  6) =     -3.81361  eV     1   --> A              
     e(  7 -  7) =      0.33876  eV     1   --> A              
     e(  8 -  8) =      3.77699  eV     1   --> A              
     e(  9 -  9) =      3.77946  eV     1   --> A              
     e( 10 - 10) =      7.58845  eV     1   --> A              
     e( 11 - 11) =      7.97339  eV     1   --> A              
     e( 12 - 12) =     14.51929  eV     1   --> A              
     e( 13 - 13) =     14.64044  eV     1   --> A              
     e( 14 - 14) =     14.86133  eV     1   --> A              
     e( 15 - 15) =     17.39047  eV     1   --> A              
     e( 16 - 16) =     17.53893  eV     1   --> A              

 **************************************************************************

 **************************************************************************

                    xk=(   0.49583,  -0.27184,   0.41464  )

     Band symmetry, C_1 (1)     point group:

     e(  1 -  1) =     -8.52456  eV     1   --> A              
     e(  2 -  2) =     -8.31951  eV     1   --> A              
     e(  3 -  3) =     -8.31939  eV     1   --> A              
     e(  4 -  4) =     -8.31271  eV     1   --> A              
     e(  5 -  5) =     -8.26523  eV     1   --> A              
     e(  6 -  6) =     -3.81273  eV     1   --> A              
     e(  7 -  7) =      0.33442  eV     1   --> A              
     e(  8 -  8) =      3.78836  eV     1   --> A              
     e(  9 -  9) =      3.78889  eV     1   --> A              
     e( 10 - 10) =      7.55986  eV     1   --> A              
     e( 11 - 11) =      7.94617  eV     1   --> A              
     e( 12 - 12) =     14.63071  eV     1   --> A              
     e( 13 - 13) =     14.71444  eV     1   --> A              
     e( 14 - 14) =     14.79998  eV     1   --> A              
     e( 15 - 15) =     17.41178  eV     1   --> A              
     e( 16 - 16) =     17.57545  eV     1   --> A              

 **************************************************************************

 **************************************************************************

                    xk=(   0.50000,  -0.28868,   0.40825  )

     point group C_s (m)    
     there are  2 classes
     the character table:

       E     s    
A'     1.00  1.00
A''    1.00 -1.00

     the symmetry operations in each class and the name of the first element:

     E        1
                                                                 
     s        2
                                                                 

     Band symmetry, C_s (m)     point group:

     e(  1 -  1) =     -8.52437  eV     1   --> A'             
     e(  2 -  3) =     -8.31916  eV     2   --> A'             
     e(  2 -  3) =     -8.31916  eV     2   --> A''            
     e(  4 -  4) =     -8.31250  eV     1   --> A'             
     e(  5 -  5) =     -8.26502  eV     1   --> A''            
     e(  6 -  6) =     -3.81242  eV     1   --> A'             
     e(  7 -  7) =      0.33296  eV     1   --> A'             
     e(  8 -  9) =      3.79214  eV     2   --> A'             
     e(  8 -  9) =      3.79214  eV     2   --> A''            
     e( 10 - 10) =      7.55029  eV     1   --> A'             
     e( 11 - 11) =      7.93704  eV     1   --> A'             
     e( 12 - 12) =     14.70422  eV     1   --> A'             
     e( 13 - 14) =     14.74171  eV     2   --> A'             
     e( 13 - 14) =     14.74171  eV     2   --> A''            
     e( 15 - 15) =     17.41848  eV     1   --> A''            
     e( 16 - 16) =     17.59904  eV     1   --> A'             

 **************************************************************************

     BANDS        :     57.58s CPU     19.93s WALL


   This run was terminated on:   7: 6:13  12Dec2024            

=------------------------------------------------------------------------------=
   JOB DONE.
=------------------------------------------------------------------------------=
