
     Program PWSCF v.7.0 starts on 14Dec2024 at 21:49: 0 

     This program is part of the open-source Quantum ESPRESSO suite
     for quantum simulation of materials; please cite
         "P. Giannozzi et al., J. Phys.:Condens. Matter 21 395502 (2009);
         "P. Giannozzi et al., J. Phys.:Condens. Matter 29 465901 (2017);
         "P. Giannozzi et al., J. Chem. Phys. 152 154105 (2020);
          URL http://www.quantum-espresso.org", 
     in publications or presentations arising from this work. More details at
     http://www.quantum-espresso.org/quote

     Parallel version (MPI & OpenMP), running on       2 processor cores
     Number of MPI processes:                 2
     Threads/MPI process:                     1

     MPI processes distributed on     1 nodes
     R & G space division:  proc/nbgrp/npool/nimage =       2
     150 MiB available memory on the printing compute node when the environment starts

     Reading input from pw.scf.in

     Current dimensions of program PWSCF are:
     Max number of different atomic species (ntypx) = 10
     Max number of k-points (npk) =  40000
     Max angular momentum in pseudopotentials (lmaxx) =  4
     file Ga.pbe-dn-kjpaw_psl.1.0.0.UPF: wavefunction(s)  4S renormalized

     IMPORTANT: XC functional enforced from input :
     Exchange-correlation= PBE
                           (   1   4   3   4   0   0   0)
     Any further DFT definition will be discarded
     Please, verify this is what you really want

     Found identity + (  0.0000 -0.5000 -0.5000) symmetry
     This is a supercell, fractional translations are disabled
     Message from routine setup:
     using ibrav=0 with symmetry is DISCOURAGED, use correct ibrav instead

     Subspace diagonalization in iterative solution of the eigenvalue problem:
     a serial algorithm will be used


     Parallelization info
     --------------------
     sticks:   dense  smooth     PW     G-vecs:    dense   smooth      PW
     Min        1694    1120    310                74046    40288    5876
     Max        1695    1121    311                74047    40293    5877
     Sum        3389    2241    621               148093    80581   11753

     Using Slab Decomposition



     bravais-lattice index     =            0
     lattice parameter (alat)  =      10.8663  a.u.
     unit-cell volume          =    1283.0421 (a.u.)^3
     number of atoms/cell      =            8
     number of atomic types    =            2
     number of electrons       =        72.00
     number of Kohn-Sham states=           43
     kinetic-energy cutoff     =      60.0000  Ry
     charge density cutoff     =     360.0000  Ry
     scf convergence threshold =      1.0E-08
     mixing beta               =       0.7000
     number of iterations used =            8  plain     mixing
     Exchange-correlation= PBE
                           (   1   4   3   4   0   0   0)

     celldm(1)=  10.866265  celldm(2)=   0.000000  celldm(3)=   0.000000
     celldm(4)=   0.000000  celldm(5)=   0.000000  celldm(6)=   0.000000

     crystal axes: (cart. coord. in units of alat)
               a(1) = (   1.000000   0.000000   0.000000 )  
               a(2) = (   0.000000   1.000000   0.000000 )  
               a(3) = (   0.000000   0.000000   1.000000 )  

     reciprocal axes: (cart. coord. in units 2 pi/alat)
               b(1) = (  1.000000  0.000000  0.000000 )  
               b(2) = (  0.000000  1.000000  0.000000 )  
               b(3) = (  0.000000  0.000000  1.000000 )  


     PseudoPot. # 1 for As read from file:
     ../Pseudopotentials/As.pbe-n-kjpaw_psl.1.0.0.UPF
     MD5 check sum: 21b474db91924651be503153fb2dbf55
     Pseudo is Projector augmented-wave + core cor, Zval =  5.0
     Generated using &quot;atomic&quot; code by A. Dal Corso  v.6.3
     Shape of augmentation charge: PSQ
     Using radial grid of 1209 points,  4 beta functions with: 
                l(1) =   0
                l(2) =   0
                l(3) =   1
                l(4) =   1
     Q(r) pseudized with 0 coefficients 


     PseudoPot. # 2 for Ga read from file:
     ../Pseudopotentials/Ga.pbe-dn-kjpaw_psl.1.0.0.UPF
     MD5 check sum: 50ce49cbf7e0a40ad8623bf41840a268
     Pseudo is Projector augmented-wave + core cor, Zval = 13.0
     Generated using &quot;atomic&quot; code by A. Dal Corso  v.6.3
     Shape of augmentation charge: PSQ
     Using radial grid of 1205 points,  6 beta functions with: 
                l(1) =   0
                l(2) =   0
                l(3) =   1
                l(4) =   1
                l(5) =   2
                l(6) =   2
     Q(r) pseudized with 0 coefficients 


     atomic species   valence    mass     pseudopotential
        As             5.00    74.92100     As( 1.00)
        Ga            13.00    69.72300     Ga( 1.00)

     24 Sym. Ops. (no inversion) found



   Cartesian axes

     site n.     atom                  positions (alat units)
         1           As  tau(   1) = (   0.2500000   0.2500000   0.2500000  )
         2           As  tau(   2) = (   0.2500000   0.7500000   0.7500000  )
         3           As  tau(   3) = (   0.7500000   0.2500000   0.7500000  )
         4           As  tau(   4) = (   0.7500000   0.7500000   0.2500000  )
         5           Ga  tau(   5) = (   0.0000000   0.0000000   0.0000000  )
         6           Ga  tau(   6) = (   0.0000000   0.5000000   0.5000000  )
         7           Ga  tau(   7) = (   0.5000000   0.0000000   0.5000000  )
         8           Ga  tau(   8) = (   0.5000000   0.5000000   0.0000000  )

     number of k points=    20  Marzari-Vanderbilt smearing, width (Ry)=  0.0050
                       cart. coord. in units 2pi/alat
        k(    1) = (   0.0000000   0.0000000   0.0000000), wk =   0.0058309
        k(    2) = (   0.0000000   0.0000000   0.1428571), wk =   0.0349854
        k(    3) = (   0.0000000   0.0000000   0.2857143), wk =   0.0349854
        k(    4) = (   0.0000000   0.0000000   0.4285714), wk =   0.0349854
        k(    5) = (   0.0000000   0.1428571   0.1428571), wk =   0.0699708
        k(    6) = (   0.0000000   0.1428571   0.2857143), wk =   0.1399417
        k(    7) = (   0.0000000   0.1428571   0.4285714), wk =   0.1399417
        k(    8) = (   0.0000000   0.2857143   0.2857143), wk =   0.0699708
        k(    9) = (   0.0000000   0.2857143   0.4285714), wk =   0.1399417
        k(   10) = (   0.0000000   0.4285714   0.4285714), wk =   0.0699708
        k(   11) = (   0.1428571   0.1428571   0.1428571), wk =   0.0466472
        k(   12) = (   0.1428571   0.1428571   0.2857143), wk =   0.1399417
        k(   13) = (   0.1428571   0.1428571   0.4285714), wk =   0.1399417
        k(   14) = (   0.1428571   0.2857143   0.2857143), wk =   0.1399417
        k(   15) = (   0.1428571   0.2857143   0.4285714), wk =   0.2798834
        k(   16) = (   0.1428571   0.4285714   0.4285714), wk =   0.1399417
        k(   17) = (   0.2857143   0.2857143   0.2857143), wk =   0.0466472
        k(   18) = (   0.2857143   0.2857143   0.4285714), wk =   0.1399417
        k(   19) = (   0.2857143   0.4285714   0.4285714), wk =   0.1399417
        k(   20) = (   0.4285714   0.4285714   0.4285714), wk =   0.0466472

     Dense  grid:   148093 G-vectors     FFT dimensions: (  72,  72,  72)

     Smooth grid:    80581 G-vectors     FFT dimensions: (  54,  54,  54)

     Estimated max dynamical RAM per process >     353.12 MB

     Estimated total dynamical RAM >     706.24 MB

     Initial potential from superposition of free atoms

     starting charge      71.9872, renormalised to      72.0000
     Starting wfcs are   52 randomized atomic wfcs
     Checking if some PAW data can be deallocated... 

     total cpu time spent up to now is       10.0 secs

     per-process dynamical memory:   128.4 Mb

     Self-consistent Calculation

     iteration #  1     ecut=    60.00 Ry     beta= 0.70
     Davidson diagonalization with overlap
     ethr =  1.00E-02,  avg # of iterations =  3.1

     Threshold (ethr) on eigenvalues was too large:
     Diagonalizing with lowered threshold

     Davidson diagonalization with overlap
     ethr =  2.37E-04,  avg # of iterations =  5.5

     total cpu time spent up to now is       34.8 secs

     WARNING: integrated charge=    72.00001001, expected=    72.00000000

     total energy              =   -1815.83279752 Ry
     estimated scf accuracy    <       0.18580524 Ry

     iteration #  2     ecut=    60.00 Ry     beta= 0.70
     Davidson diagonalization with overlap
     ethr =  2.58E-04,  avg # of iterations =  2.8

     total cpu time spent up to now is       31.9 secs

     total energy              =   -1815.86473553 Ry
     estimated scf accuracy    <       0.03890905 Ry

     iteration #  3     ecut=    60.00 Ry     beta= 0.70
     Davidson diagonalization with overlap
     ethr =  5.40E-05,  avg # of iterations =  2.3
     Minimization algorithm failed to find Fermi energy: reverting to bisection
     Possible cause: smearing is larger than the electronic band-gap.

     total cpu time spent up to now is       45.1 secs

     total energy              =   -1815.87499654 Ry
     estimated scf accuracy    <       0.00249818 Ry

     iteration #  4     ecut=    60.00 Ry     beta= 0.70
     Davidson diagonalization with overlap
     c_bands:  1 eigenvalues not converged
     c_bands:  1 eigenvalues not converged
     ethr =  3.47E-06,  avg # of iterations =  6.5

     total cpu time spent up to now is       98.6 secs

     WARNING: integrated charge=    71.99973661, expected=    72.00000000

     total energy              =   -1815.87887311 Ry
     estimated scf accuracy    <       0.00758163 Ry

     iteration #  5     ecut=    60.00 Ry     beta= 0.70
     Davidson diagonalization with overlap
     ethr =  3.47E-06,  avg # of iterations =  1.1

     total cpu time spent up to now is      110.1 secs

     WARNING: integrated charge=    72.00206520, expected=    72.00000000

     total energy              =   -1815.87494230 Ry
     estimated scf accuracy    <       0.01002986 Ry

     iteration #  6     ecut=    60.00 Ry     beta= 0.70
     Davidson diagonalization with overlap
     ethr =  3.47E-06,  avg # of iterations =  4.0

     total cpu time spent up to now is      114.7 secs

     WARNING: integrated charge=    72.00187484, expected=    72.00000000

     total energy              =   -1815.87650372 Ry
     estimated scf accuracy    <       0.00470168 Ry

     iteration #  7     ecut=    60.00 Ry     beta= 0.70
     Davidson diagonalization with overlap
     ethr =  3.47E-06,  avg # of iterations =  1.1

     total cpu time spent up to now is      110.1 secs

     WARNING: integrated charge=    72.00208113, expected=    72.00000000

     total energy              =   -1815.87651109 Ry
     estimated scf accuracy    <       0.00073109 Ry

     iteration #  8     ecut=    60.00 Ry     beta= 0.70
     Davidson diagonalization with overlap
     ethr =  1.02E-06,  avg # of iterations =  3.4

     total cpu time spent up to now is      111.1 secs

     WARNING: integrated charge=    72.00205789, expected=    72.00000000

     total energy              =   -1815.87690528 Ry
     estimated scf accuracy    <       0.00005288 Ry

     iteration #  9     ecut=    60.00 Ry     beta= 0.70
     Davidson diagonalization with overlap
     ethr =  7.34E-08,  avg # of iterations =  1.1

     total cpu time spent up to now is      174.8 secs

     WARNING: integrated charge=    72.00201755, expected=    72.00000000

     total energy              =   -1815.87690045 Ry
     estimated scf accuracy    <       0.00004523 Ry

     iteration # 10     ecut=    60.00 Ry     beta= 0.70
     Davidson diagonalization with overlap
     ethr =  6.28E-08,  avg # of iterations =  1.0

     total cpu time spent up to now is      186.1 secs

     WARNING: integrated charge=    72.00202226, expected=    72.00000000

     total energy              =   -1815.87689655 Ry
     estimated scf accuracy    <       0.00002542 Ry

     iteration # 11     ecut=    60.00 Ry     beta= 0.70
     Davidson diagonalization with overlap
     ethr =  3.53E-08,  avg # of iterations =  1.5

     total cpu time spent up to now is      179.3 secs

     WARNING: integrated charge=    72.00202181, expected=    72.00000000

     total energy              =   -1815.87690389 Ry
     estimated scf accuracy    <       0.00000252 Ry

     iteration # 12     ecut=    60.00 Ry     beta= 0.70
     Davidson diagonalization with overlap
     ethr =  3.50E-09,  avg # of iterations =  4.1

     total cpu time spent up to now is      182.2 secs

     WARNING: integrated charge=    72.00202510, expected=    72.00000000

     total energy              =   -1815.87690736 Ry
     estimated scf accuracy    <       0.00000093 Ry

     iteration # 13     ecut=    60.00 Ry     beta= 0.70
     Davidson diagonalization with overlap
     ethr =  1.29E-09,  avg # of iterations =  1.1

     total cpu time spent up to now is      193.4 secs

     WARNING: integrated charge=    72.00202932, expected=    72.00000000

     total energy              =   -1815.87690621 Ry
     estimated scf accuracy    <       0.00000003 Ry

     iteration # 14     ecut=    60.00 Ry     beta= 0.70
     Davidson diagonalization with overlap
     ethr =  3.48E-11,  avg # of iterations =  5.0

     total cpu time spent up to now is      246.7 secs

     WARNING: integrated charge=    72.00202802, expected=    72.00000000

     total energy              =   -1815.87690482 Ry
     estimated scf accuracy    <       0.00000379 Ry

     iteration # 15     ecut=    60.00 Ry     beta= 0.70
     Davidson diagonalization with overlap
     ethr =  3.48E-11,  avg # of iterations =  4.0

     total cpu time spent up to now is      246.4 secs

     WARNING: integrated charge=    72.00202655, expected=    72.00000000

     total energy              =   -1815.87690517 Ry
     estimated scf accuracy    <       0.00000226 Ry

     iteration # 16     ecut=    60.00 Ry     beta= 0.70
     Davidson diagonalization with overlap
     ethr =  3.48E-11,  avg # of iterations =  4.0

     total cpu time spent up to now is      248.7 secs

     WARNING: integrated charge=    72.00202741, expected=    72.00000000

     total energy              =   -1815.87690571 Ry
     estimated scf accuracy    <       0.00000141 Ry

     iteration # 17     ecut=    60.00 Ry     beta= 0.70
     Davidson diagonalization with overlap
     ethr =  3.48E-11,  avg # of iterations =  4.0

     total cpu time spent up to now is      266.2 secs

     WARNING: integrated charge=    72.00202766, expected=    72.00000000

     total energy              =   -1815.87690546 Ry
     estimated scf accuracy    <       0.00000216 Ry

     iteration # 18     ecut=    60.00 Ry     beta= 0.70
     Davidson diagonalization with overlap
     ethr =  3.48E-11,  avg # of iterations =  1.0

     total cpu time spent up to now is      318.9 secs

     WARNING: integrated charge=    72.00202688, expected=    72.00000000

     total energy              =   -1815.87690531 Ry
     estimated scf accuracy    <       0.00000227 Ry

     iteration # 19     ecut=    60.00 Ry     beta= 0.70
     Davidson diagonalization with overlap
     ethr =  3.48E-11,  avg # of iterations =  1.0

     total cpu time spent up to now is      329.9 secs

     WARNING: integrated charge=    72.00202665, expected=    72.00000000

     total energy              =   -1815.87690539 Ry
     estimated scf accuracy    <       0.00000191 Ry

     iteration # 20     ecut=    60.00 Ry     beta= 0.70
     Davidson diagonalization with overlap
     ethr =  3.48E-11,  avg # of iterations =  4.0

     total cpu time spent up to now is      330.0 secs

     WARNING: integrated charge=    72.00202635, expected=    72.00000000

     total energy              =   -1815.87690543 Ry
     estimated scf accuracy    <       0.00000099 Ry

     iteration # 21     ecut=    60.00 Ry     beta= 0.70
     Davidson diagonalization with overlap
     ethr =  3.48E-11,  avg # of iterations =  4.2

     total cpu time spent up to now is      332.6 secs

     WARNING: integrated charge=    72.00202569, expected=    72.00000000

     total energy              =   -1815.87690558 Ry
     estimated scf accuracy    <       0.00000035 Ry

     iteration # 22     ecut=    60.00 Ry     beta= 0.70
     Davidson diagonalization with overlap
     ethr =  3.48E-11,  avg # of iterations =  4.0

     total cpu time spent up to now is      337.6 secs

     WARNING: integrated charge=    72.00202539, expected=    72.00000000

     total energy              =   -1815.87690583 Ry
     estimated scf accuracy    <       0.00000010 Ry

     iteration # 23     ecut=    60.00 Ry     beta= 0.70
     Davidson diagonalization with overlap
     ethr =  3.48E-11,  avg # of iterations =  1.0

     total cpu time spent up to now is      406.7 secs

     WARNING: integrated charge=    72.00202491, expected=    72.00000000

     total energy              =   -1815.87690594 Ry
     estimated scf accuracy    <       0.00000005 Ry

     iteration # 24     ecut=    60.00 Ry     beta= 0.70
     Davidson diagonalization with overlap
     ethr =  3.48E-11,  avg # of iterations =  4.0

     total cpu time spent up to now is      407.4 secs

     End of self-consistent calculation

          k = 0.0000 0.0000 0.0000 ( 10059 PWs)   bands (ev):

    -8.6707  -8.6707  -8.6707  -8.5780  -8.5780  -8.5780  -8.5367  -8.5367
    -8.5367  -8.5367  -8.5367  -8.5367  -8.5320  -8.5320  -8.5320  -8.5116
    -8.5116  -8.4996  -8.4996  -8.4996  -6.2598  -3.9758  -3.9758  -3.9758
    -0.4740  -0.4740  -0.4740   3.6121   3.6121   3.6121   3.6121   3.6121
     3.6121   6.1174   6.1174   6.1174   6.2720   7.6696   7.6696   7.6696
     7.7847   7.7847   7.7847

          k = 0.0000 0.0000 0.1429 ( 10095 PWs)   bands (ev):

    -8.6688  -8.6688  -8.6670  -8.5839  -8.5761  -8.5761  -8.5394  -8.5394
    -8.5388  -8.5388  -8.5379  -8.5379  -8.5308  -8.5296  -8.5296  -8.5124
    -8.5110  -8.5006  -8.5006  -8.5002  -6.1854  -4.1825  -3.9670  -3.9670
    -0.4457  -0.4457  -0.1758   3.4375   3.4375   3.4742   3.4742   3.6917
     3.6917   4.9602   5.8859   5.8859   7.4111   7.5936   8.0373   8.0373
     8.0614   8.1577   8.1577

          k = 0.0000 0.0000 0.2857 ( 10075 PWs)   bands (ev):

    -8.6640  -8.6640  -8.6562  -8.5994  -8.5705  -8.5705  -8.5458  -8.5458
    -8.5447  -8.5447  -8.5392  -8.5392  -8.5276  -8.5251  -8.5251  -8.5147
    -8.5093  -8.5033  -8.5033  -8.5018  -5.9666  -4.6475  -3.9470  -3.9470
    -0.3778  -0.3778   0.5619   3.0937   3.0937   3.2082   3.2082   3.7593
     3.9270   3.9270   5.3694   5.3694   7.6713   8.4101   8.5536   8.9914
     8.9914   9.0930   9.0930

          k = 0.0000 0.0000 0.4286 ( 10050 PWs)   bands (ev):

    -8.6598  -8.6598  -8.6397  -8.6196  -8.5623  -8.5623  -8.5531  -8.5531
    -8.5514  -8.5514  -8.5399  -8.5399  -8.5232  -8.5210  -8.5210  -8.5185
    -8.5069  -8.5064  -8.5064  -8.5043  -5.6170  -5.1612  -3.9308  -3.9308
    -0.3185  -0.3185   1.5258   2.6071   2.8484   2.8484   3.0248   3.0248
     4.3060   4.3060   4.8040   4.8040   7.9324   8.3348   9.0845   9.2634
    10.2190  10.2190  10.2917

          k = 0.0000 0.1429 0.1429 ( 10063 PWs)   bands (ev):

    -8.6669  -8.6652  -8.6652  -8.5877  -8.5759  -8.5744  -8.5417  -8.5415
    -8.5415  -8.5397  -8.5397  -8.5386  -8.5287  -8.5287  -8.5280  -8.5123
    -8.5111  -8.5016  -8.5011  -8.5011  -6.1121  -4.1626  -4.1626  -3.9673
    -0.4172  -0.1728  -0.1728   3.0183   3.4850   3.4850   3.6035   3.6035
     3.7443   4.3320   5.6427   6.0386   7.6033   7.8511   7.9894   7.9894
     8.3953   8.3953   8.9229

          k = 0.0000 0.1429 0.2857 ( 10087 PWs)   bands (ev):

    -8.6624  -8.6610  -8.6550  -8.6014  -8.5712  -8.5696  -8.5476  -8.5471
    -8.5470  -8.5453  -8.5410  -8.5405  -8.5260  -8.5244  -8.5239  -8.5141
    -8.5096  -8.5041  -8.5035  -8.5024  -5.8969  -4.6088  -4.1113  -3.9741
    -0.3447  -0.1736   0.5023   2.6742   3.0655   3.3448   3.4543   3.6891
     3.7168   3.9216   5.1103   5.6414   8.0835   8.3136   8.3415   8.8313
     8.9780   9.2606   9.4403

          k = 0.0000 0.1429 0.4286 ( 10085 PWs)   bands (ev):

    -8.6581  -8.6576  -8.6393  -8.6203  -8.5634  -8.5623  -8.5548  -8.5536
    -8.5526  -8.5523  -8.5417  -8.5416  -8.5219  -8.5202  -8.5199  -8.5176
    -8.5072  -8.5069  -8.5066  -8.5046  -5.5536  -5.1077  -4.0495  -3.9999
    -0.2606  -0.1991   1.3766   2.3412   2.5585   2.7070   3.4133   3.5316
     4.0489   4.4011   4.5397   5.0043   8.3433   8.6731   9.2575   9.2696
     9.3656  10.0747  10.4174

          k = 0.0000 0.2857 0.2857 ( 10105 PWs)   bands (ev):

    -8.6581  -8.6524  -8.6524  -8.6097  -8.5699  -8.5668  -8.5521  -8.5521
    -8.5500  -8.5465  -8.5465  -8.5441  -8.5221  -8.5221  -8.5205  -8.5136
    -8.5098  -8.5062  -8.5044  -8.5043  -5.6927  -4.5013  -4.5013  -4.0565
    -0.2460   0.3402   0.3402   2.4306   2.5763   3.1997   3.1997   3.9528
     3.9528   4.1202   4.5590   5.7654   8.2023   8.3273   9.0763   9.0763
     9.5456   9.5456  10.2794

          k = 0.0000 0.2857 0.4286 ( 10067 PWs)   bands (ev):

    -8.6534  -8.6511  -8.6393  -8.6238  -8.5643  -8.5619  -8.5579  -8.5555
    -8.5544  -8.5541  -8.5471  -8.5465  -8.5188  -8.5179  -8.5169  -8.5154
    -8.5085  -8.5081  -8.5073  -8.5060  -5.3690  -4.9543  -4.3493  -4.1890
    -0.0849   0.1242   1.0159   1.7749   2.4610   2.7423   3.5166   3.9873
     4.0659   4.1900   4.6115   5.3069   8.7490   8.8015   9.1906   9.6054
     9.6712   9.9095  10.5860

          k = 0.0000 0.4286 0.4286 ( 10081 PWs)   bands (ev):

    -8.6471  -8.6417  -8.6417  -8.6315  -8.5614  -8.5606  -8.5585  -8.5585
    -8.5562  -8.5545  -8.5545  -8.5522  -8.5149  -8.5149  -8.5135  -8.5130
    -8.5109  -8.5094  -8.5087  -8.5087  -5.0810  -4.7225  -4.7225  -4.4498
     0.2066   0.5917   0.5917   1.1580   2.6208   2.9959   2.9959   3.4308
     4.6726   4.7751   4.7751   5.2758   8.6161   8.7121   9.0187   9.0187
    10.8302  10.8302  11.1457

          k = 0.1429 0.1429 0.1429 ( 10074 PWs)   bands (ev):

    -8.6636  -8.6636  -8.6636  -8.5914  -8.5742  -8.5742  -8.5435  -8.5435
    -8.5435  -8.5407  -8.5407  -8.5407  -8.5271  -8.5271  -8.5271  -8.5116
    -8.5116  -8.5019  -8.5019  -8.5019  -6.0401  -4.1507  -4.1507  -4.1507
    -0.1744  -0.1744  -0.1744   3.1355   3.1355   3.1355   3.8168   3.8204
     3.8204   3.8204   5.8431   5.8431   7.5281   7.9218   7.9218   7.9218
     9.0332   9.0332   9.0332

          k = 0.1429 0.1429 0.2857 ( 10068 PWs)   bands (ev):

    -8.6596  -8.6596  -8.6540  -8.6038  -8.5708  -8.5695  -8.5487  -8.5487
    -8.5486  -8.5465  -8.5425  -8.5425  -8.5245  -8.5231  -8.5231  -8.5135
    -8.5098  -8.5041  -8.5041  -8.5029  -5.8288  -4.5755  -4.1232  -4.1232
    -0.1815  -0.1815   0.4265   2.8151   2.8151   2.9430   3.4819   3.8145
     3.8145   4.0449   5.3880   5.4812   7.9941   8.1252   8.4151   8.4151
     9.3240   9.8413  10.1369

          k = 0.1429 0.1429 0.4286 ( 10080 PWs)   bands (ev):

    -8.6561  -8.6561  -8.6392  -8.6213  -8.5641  -8.5625  -8.5561  -8.5543
    -8.5534  -8.5534  -8.5435  -8.5435  -8.5207  -8.5191  -8.5191  -8.5167
    -8.5073  -8.5069  -8.5069  -8.5048  -5.4924  -5.0576  -4.1007  -4.1007
    -0.1908  -0.1908   1.2005   2.0522   2.6597   2.6597   3.7040   3.7040
     4.0358   4.4042   4.7440   4.8704   8.4161   8.5371   9.3879   9.3879
     9.5746   9.5968  10.8187

          k = 0.1429 0.2857 0.2857 ( 10065 PWs)   bands (ev):

    -8.6559  -8.6516  -8.6516  -8.6120  -8.5691  -8.5671  -8.5530  -8.5530
    -8.5515  -8.5480  -8.5480  -8.5461  -8.5208  -8.5208  -8.5196  -8.5127
    -8.5099  -8.5059  -8.5046  -8.5046  -5.6294  -4.4851  -4.4851  -4.1655
    -0.1830   0.2367   0.2367   2.2096   2.6549   3.2028   3.2028   4.1121
     4.1121   4.1843   4.9365   5.6581   7.8468   8.2678   8.6007   8.6007
    10.2420  10.2420  10.5057

          k = 0.1429 0.2857 0.4286 ( 10078 PWs)   bands (ev):

    -8.6520  -8.6503  -8.6395  -8.6252  -8.5645  -8.5623  -8.5586  -8.5562
    -8.5554  -8.5552  -8.5488  -8.5484  -8.5176  -8.5167  -8.5160  -8.5145
    -8.5080  -8.5080  -8.5072  -8.5059  -5.3149  -4.9152  -4.3640  -4.2480
    -0.1257   0.0240   0.8048   1.4720   2.7153   2.9302   3.7439   4.1783
     4.2638   4.3427   4.6083   5.2256   8.3302   8.7083   8.7581   9.2625
    10.1166  10.1813  10.3515

          k = 0.1429 0.4286 0.4286 ( 10056 PWs)   bands (ev):

    -8.6466  -8.6419  -8.6419  -8.6326  -8.5619  -8.5611  -8.5592  -8.5592
    -8.5571  -8.5557  -8.5557  -8.5537  -8.5139  -8.5139  -8.5125  -8.5123
    -8.5100  -8.5090  -8.5082  -8.5082  -5.0403  -4.7043  -4.7043  -4.4648
     0.0611   0.3866   0.3866   0.8826   2.9525   3.3252   3.3252   3.8141
     4.7091   4.7965   4.7965   5.2569   8.3440   8.5511   8.7572   8.7572
    10.4870  10.4870  10.8416

          k = 0.2857 0.2857 0.2857 ( 10048 PWs)   bands (ev):

    -8.6498  -8.6498  -8.6498  -8.6190  -8.5668  -8.5668  -8.5553  -8.5553
    -8.5553  -8.5511  -8.5511  -8.5511  -8.5174  -8.5174  -8.5174  -8.5105
    -8.5105  -8.5055  -8.5055  -8.5055  -5.4457  -4.4477  -4.4477  -4.4477
     0.0225   0.0225   0.0225   1.5426   3.2551   3.2551   3.2551   4.3706
     4.3706   4.3706   5.3777   5.3777   7.3112   8.3946   8.3946   8.3946
    10.7718  10.7724  10.7725

          k = 0.2857 0.2857 0.4286 ( 10052 PWs)   bands (ev):

    -8.6482  -8.6482  -8.6404  -8.6293  -8.5644  -8.5627  -8.5601  -8.5578
    -8.5578  -8.5572  -8.5530  -8.5530  -8.5146  -8.5138  -8.5138  -8.5122
    -8.5080  -8.5073  -8.5073  -8.5062  -5.1602  -4.8080  -4.4166  -4.4166
    -0.1351  -0.1351   0.3877   0.9052   3.3267   3.3267   4.0797   4.4864
     4.4864   4.6601   4.9410   5.0160   7.6759   8.2735   8.6247   8.6247
    10.3436  10.4220  10.4598

          k = 0.2857 0.4286 0.4286 ( 10068 PWs)   bands (ev):

    -8.6452  -8.6423  -8.6423  -8.6355  -8.5626  -8.5621  -8.5605  -8.5605
    -8.5592  -8.5583  -8.5583  -8.5571  -8.5114  -8.5114  -8.5106  -8.5102
    -8.5083  -8.5083  -8.5075  -8.5075  -4.9287  -4.6620  -4.6620  -4.5193
    -0.1590   0.0256   0.0256   0.3861   3.7200   4.0220   4.0220   4.5852
     4.8097   4.8526   4.8526   5.1956   7.5509   8.0912   8.0912   8.1868
    10.4282  10.4282  10.5490

          k = 0.4286 0.4286 0.4286 ( 10021 PWs)   bands (ev):

    -8.6427  -8.6427  -8.6427  -8.6392  -8.5623  -8.5623  -8.5612  -8.5612
    -8.5612  -8.5604  -8.5604  -8.5604  -8.5090  -8.5090  -8.5090  -8.5082
    -8.5082  -8.5075  -8.5075  -8.5075  -4.7761  -4.6267  -4.6267  -4.6267
    -0.2099  -0.2099  -0.2099  -0.0177   4.5985   4.5985   4.5985   4.9484
     4.9484   4.9484   5.0881   5.0881   7.0196   7.4685   7.4685   7.4685
    10.5785  10.5785  10.5786

     the Fermi energy is     6.2397 ev

     WARNING: integrated charge=    72.00202487, expected=    72.00000000

!    total energy              =   -1815.87690615 Ry

     total all-electron energy =    -33640.404985 Ry
     estimated scf accuracy    <          6.3E-09 Ry
     smearing contrib. (-TS)   =       0.00001015 Ry
     internal energy E=F+TS    =   -1815.87691630 Ry

     The total energy is F=E-TS. E is the sum of the following terms:
     one-electron contribution =    -486.45654002 Ry
     hartree contribution      =     304.21712793 Ry
     xc contribution           =    -198.65917782 Ry
     ewald contribution        =    -365.79814127 Ry
     one-center paw contrib.   =   -1069.18018511 Ry

     convergence has been achieved in  24 iterations

     Forces acting on atoms (cartesian axes, Ry/au):

     atom    1 type  1   force =    -0.00000002   -0.00000002   -0.00000002
     atom    2 type  1   force =    -0.00000002    0.00000002    0.00000002
     atom    3 type  1   force =     0.00000002   -0.00000002    0.00000002
     atom    4 type  1   force =     0.00000002    0.00000002   -0.00000002
     atom    5 type  2   force =     0.00000000    0.00000000    0.00000000
     atom    6 type  2   force =     0.00000000    0.00000000    0.00000000
     atom    7 type  2   force =     0.00000000    0.00000000    0.00000000
     atom    8 type  2   force =     0.00000000    0.00000000    0.00000000

     Total force =     0.000000     Total SCF correction =     0.000000
     SCF correction compared to forces is large: reduce conv_thr to get better values


     Computing stress (Cartesian axis) and pressure

          total   stress  (Ry/bohr**3)                   (kbar)     P=       -0.69
  -0.00000468   0.00000000   0.00000000           -0.69        0.00        0.00
   0.00000000  -0.00000468   0.00000000            0.00       -0.69        0.00
   0.00000000   0.00000000  -0.00000468            0.00        0.00       -0.69


     Writing all to output data dir ./outputs/gaas.save/

     init_run     :      3.83s CPU      9.75s WALL (       1 calls)
     electrons    :    393.62s CPU    397.56s WALL (       1 calls)
     forces       :      4.10s CPU      5.60s WALL (       1 calls)
     stress       :      8.70s CPU     52.43s WALL (       1 calls)

     Called by init_run:
     wfcinit      :      2.32s CPU      5.42s WALL (       1 calls)
     potinit      :      0.50s CPU      1.10s WALL (       1 calls)
     hinit0       :      0.91s CPU      1.23s WALL (       1 calls)

     Called by electrons:
     c_bands      :    318.96s CPU    348.11s WALL (      25 calls)
     sum_band     :     50.34s CPU     37.22s WALL (      25 calls)
     v_of_rho     :      2.60s CPU      2.98s WALL (      25 calls)
     newd         :      8.52s CPU     -2.87s WALL (      25 calls)
     PAW_pot      :     12.73s CPU     13.62s WALL (      25 calls)
     mix_rho      :      0.55s CPU      0.60s WALL (      25 calls)

     Called by c_bands:
     init_us_2    :      2.94s CPU      3.27s WALL (    1060 calls)
     init_us_2:cp :      2.93s CPU      3.26s WALL (    1060 calls)
     cegterg      :    310.24s CPU    293.85s WALL (     500 calls)

     Called by *egterg:
     cdiaghg      :      7.21s CPU      7.97s WALL (    1975 calls)
     h_psi        :    197.38s CPU    151.48s WALL (    2015 calls)
     s_psi        :     23.68s CPU      9.22s WALL (    2015 calls)
     g_psi        :      2.87s CPU     46.11s WALL (    1495 calls)

     Called by h_psi:
     h_psi:calbec :     24.65s CPU     11.01s WALL (    2015 calls)
     vloc_psi     :    145.54s CPU     69.04s WALL (    2015 calls)
     add_vuspsi   :     24.26s CPU     68.13s WALL (    2015 calls)

     General routines
     calbec       :     36.62s CPU     23.78s WALL (    2615 calls)
     fft          :      2.08s CPU      2.63s WALL (     349 calls)
     ffts         :      0.26s CPU      0.37s WALL (      50 calls)
     fftw         :    150.81s CPU     71.41s WALL (  145638 calls)
     interpolate  :      0.34s CPU      0.46s WALL (      25 calls)

     Parallel routines

     PWSCF        :   6m50.31s CPU   7m46.79s WALL


   This run was terminated on:  21:56:47  14Dec2024            

=------------------------------------------------------------------------------=
   JOB DONE.
=------------------------------------------------------------------------------=
