
     Program BANDS v.7.0 starts on 16Dec2024 at  6:57:39 

     This program is part of the open-source Quantum ESPRESSO suite
     for quantum simulation of materials; please cite
         "P. Giannozzi et al., J. Phys.:Condens. Matter 21 395502 (2009);
         "P. Giannozzi et al., J. Phys.:Condens. Matter 29 465901 (2017);
         "P. Giannozzi et al., J. Chem. Phys. 152 154105 (2020);
          URL http://www.quantum-espresso.org", 
     in publications or presentations arising from this work. More details at
     http://www.quantum-espresso.org/quote

     Parallel version (MPI & OpenMP), running on       2 processor cores
     Number of MPI processes:                 1
     Threads/MPI process:                     2

     MPI processes distributed on     1 nodes
     658 MiB available memory on the printing compute node when the environment starts


     Reading xml data from directory:

     ./outputs/gaalas75.save/
     file Ga.pbe-dn-kjpaw_psl.1.0.0.UPF: wavefunction(s)  4S renormalized
     file Al.pbe-n-kjpaw_psl.1.0.0.UPF: wavefunction(s)  3S 3P renormalized

     IMPORTANT: XC functional enforced from input :
     Exchange-correlation= PBE
                           (   1   4   3   4   0   0   0)
     Any further DFT definition will be discarded
     Please, verify this is what you really want


     G-vector sticks info
     --------------------
     sticks:   dense  smooth     PW     G-vecs:    dense   smooth      PW
     Sum        1489    1489    437                43819    43819    6979

     Using Slab Decomposition


     Check: negative core charge=   -0.000001
     Reading collected, re-writing distributed wavefunctions
     high-symmetry point:  0.0000 0.0000 0.0000   x coordinate   0.0000
     high-symmetry point:  0.5000 0.0000 0.5000   x coordinate   0.7071
     high-symmetry point:  0.5000 0.2500 0.7500   x coordinate   1.0607
     high-symmetry point:  0.3750 0.3750 0.7400   x coordinate   1.2377
     high-symmetry point:  0.0000 0.0000 0.0000   x coordinate   1.2377

     Plottable bands (eV) written to file gaalasbands75.dat.gnu
     Bands written to file gaalasbands75.dat

 **************************************************************************

                    xk=(   0.00000,   0.00000,   0.00000  )

     point group T_d (-43m) 
     there are  5 classes
     the character table:

       E     8C3   3C2   6S4   6s_d 
A_1    1.00  1.00  1.00  1.00  1.00
A_2    1.00  1.00  1.00 -1.00 -1.00
E      2.00 -1.00  2.00  0.00  0.00
T_1    3.00  0.00 -1.00  1.00 -1.00
T_2    3.00  0.00 -1.00 -1.00  1.00

     the symmetry operations in each class and the name of the first element:

     E        1
                                                                 
     8C3      5    7    8    6   12    9   10   11
                                                                 
     3C2      2    3    4
                                                                 
     6S4     15   16   20   19   23   24
                                                                 
     6s_d    13   14   17   18   21   22
                                                                 

     Band symmetry, T_d (-43m)  point group:

     e(  1 -  3) =     -9.49819  eV     3   --> T_2  G_15 P_4  
     e(  4 -  5) =     -9.43064  eV     2   --> E    G_12 P_3  
     e(  6 -  6) =     -6.94850  eV     1   --> A_1  G_1  P_1  
     e(  7 -  9) =     -5.00298  eV     3   --> T_2  G_15 P_4  
     e( 10 - 10) =     -1.25053  eV     1   --> A_1  G_1  P_1  
     e( 11 - 12) =     -0.48377  eV     2   --> E    G_12 P_3  
     e( 13 - 15) =      2.67819  eV     3   --> T_2  G_15 P_4  
     e( 16 - 18) =      2.68928  eV     3   --> T_1  G_25 P_5  
     e( 19 - 21) =      4.86418  eV     3   --> T_2  G_15 P_4  
     e( 22 - 22) =      5.97902  eV     1   --> A_1  G_1  P_1  
     e( 23 - 25) =      6.39840  eV     3   --> T_2  G_15 P_4  
     e( 26 - 26) =      6.75535  eV     1   --> A_1  G_1  P_1  
     e( 27 - 28) =      7.21786  eV     2   --> E    G_12 P_3  
     e( 29 - 31) =      8.94409  eV     3   --> T_2  G_15 P_4  
     e( 32 - 32) =     13.22987  eV     1   --> A_1  G_1  P_1  
     e( 33 - 34) =     14.04782  eV     2   --> E    G_12 P_3  
     e( 35 - 37) =     14.77504  eV     3   --> T_1  G_25 P_5  
     e( 38 - 40) =     14.92921  eV     3   --> T_2  G_15 P_4  
     e( 41 - 41) =     15.75050  eV     1   --> A_1  G_1  P_1  
     e( 42 - 43) =     16.06751  eV     2   --> E    G_12 P_3  
     e( 44 - 46) =     16.23334  eV     3   --> T_2  G_15 P_4  
     e( 47 - 49) =     17.18275  eV     3   --> T_1  G_25 P_5  
     e( 50 - 52) =     17.54578  eV     3   --> T_2  G_15 P_4  
     e( 53 - 53) =     17.80234  eV     1   --> A_2  G_2  P_2  
     e( 54 - 56) =     18.16304  eV     3   --> T_2  G_15 P_4  
     e( 57 - 59) =     18.44379  eV     3   --> T_1  G_25 P_5  
     e( 60 - 61) =     18.91102  eV     2   --> E    G_12 P_3  
     e( 62 - 62) =     19.41985  eV     1   --> A_1  G_1  P_1  
     e( 63 - 63) =     23.45395  eV     1   --> A_1  G_1  P_1  
     e( 64 - 64) =     23.62044  eV     1   -->   ?

 **************************************************************************

 **************************************************************************

                    xk=(   0.02500,   0.00000,   0.02500  )

     point group C_s (m)    
     there are  2 classes
     the character table:

       E     s    
A'     1.00  1.00
A''    1.00 -1.00

     the symmetry operations in each class and the name of the first element:

     E        1
                                                                 
     s        2
                                                                 

     Band symmetry, C_s (m)     point group:

     e(  1 -  3) =     -9.49824  eV     3   -->   2 A'             
     e(  1 -  3) =     -9.49824  eV     3   --> A''            
     e(  4 -  5) =     -9.43067  eV     2   --> A'             
     e(  4 -  5) =     -9.43067  eV     2   --> A''            
     e(  6 -  6) =     -6.94446  eV     1   --> A'             
     e(  7 -  7) =     -5.00840  eV     1   --> A'             
     e(  8 -  8) =     -5.00742  eV     1   --> A''            
     e(  9 -  9) =     -5.00263  eV     1   --> A'             
     e( 10 - 10) =     -1.24332  eV     1   --> A'             
     e( 11 - 11) =     -0.47904  eV     1   --> A'             
     e( 12 - 12) =     -0.47520  eV     1   --> A''            
     e( 13 - 13) =      2.65576  eV     1   --> A'             
     e( 14 - 14) =      2.67482  eV     1   --> A'             
     e( 15 - 15) =      2.67575  eV     1   --> A''            
     e( 16 - 16) =      2.68198  eV     1   --> A'             
     e( 17 - 17) =      2.68736  eV     1   --> A''            
     e( 18 - 18) =      2.69062  eV     1   --> A''            
     e( 19 - 19) =      4.78540  eV     1   --> A'             
     e( 20 - 20) =      4.85177  eV     1   --> A'             
     e( 21 - 21) =      4.86279  eV     1   --> A''            
     e( 22 - 22) =      6.03480  eV     1   --> A'             
     e( 23 - 23) =      6.41262  eV     1   --> A''            
     e( 24 - 24) =      6.41748  eV     1   --> A'             
     e( 25 - 25) =      6.42109  eV     1   --> A'             
     e( 26 - 26) =      6.78415  eV     1   --> A'             
     e( 27 - 27) =      7.23309  eV     1   --> A''            
     e( 28 - 28) =      7.23866  eV     1   --> A'             
     e( 29 - 29) =      8.94236  eV     1   --> A'             
     e( 30 - 30) =      8.94814  eV     1   --> A''            
     e( 31 - 31) =      8.96275  eV     1   --> A'             
     e( 32 - 32) =     13.25448  eV     1   --> A'             
     e( 33 - 33) =     13.99977  eV     1   --> A''            
     e( 34 - 34) =     14.03421  eV     1   --> A'             
     e( 35 - 35) =     14.71675  eV     1   --> A''            
     e( 36 - 36) =     14.74327  eV     1   --> A''            
     e( 37 - 37) =     14.74337  eV     1   --> A'             
     e( 38 - 38) =     14.87345  eV     1   --> A'             
     e( 39 - 39) =     14.88497  eV     1   --> A'             
     e( 40 - 40) =     14.89998  eV     1   --> A''            
     e( 41 - 41) =     15.71935  eV     1   --> A'             
     e( 42 - 42) =     15.98524  eV     1   --> A'             
     e( 43 - 43) =     15.99375  eV     1   --> A''            
     e( 44 - 44) =     16.23790  eV     1   --> A'             
     e( 45 - 45) =     16.24407  eV     1   --> A'             
     e( 46 - 46) =     16.28849  eV     1   --> A''            
     e( 47 - 47) =     17.10951  eV     1   --> A''            
     e( 48 - 48) =     17.17427  eV     1   --> A''            
     e( 49 - 49) =     17.21166  eV     1   --> A'             
     e( 50 - 50) =     17.52784  eV     1   --> A'             
     e( 51 - 51) =     17.55659  eV     1   --> A'             
     e( 52 - 52) =     17.62332  eV     1   --> A''            
     e( 53 - 53) =     17.84464  eV     1   --> A''            
     e( 54 - 54) =     18.11631  eV     1   --> A''            
     e( 55 - 55) =     18.18869  eV     1   --> A'             
     e( 56 - 56) =     18.24086  eV     1   --> A'             
     e( 57 - 57) =     18.43678  eV     1   --> A'             
     e( 58 - 58) =     18.48763  eV     1   --> A''            
     e( 59 - 59) =     18.52653  eV     1   --> A''            
     e( 60 - 60) =     18.99864  eV     1   --> A''            
     e( 61 - 61) =     19.02985  eV     1   --> A'             
     e( 62 - 62) =     19.46470  eV     1   --> A'             
     e( 63 - 63) =     23.31504  eV     1   --> A'             
     e( 64 - 64) =     23.40967  eV     1   --> A''            

 **************************************************************************

 **************************************************************************

                    xk=(   0.05000,   0.00000,   0.05000  )

     Band symmetry, C_s (m)     point group:

     e(  1 -  3) =     -9.49833  eV     3   -->   2 A'             
     e(  1 -  3) =     -9.49833  eV     3   --> A''            
     e(  4 -  5) =     -9.43066  eV     2   --> A'             
     e(  4 -  5) =     -9.43066  eV     2   --> A''            
     e(  6 -  6) =     -6.93235  eV     1   --> A'             
     e(  7 -  7) =     -5.02433  eV     1   --> A'             
     e(  8 -  8) =     -5.02048  eV     1   --> A''            
     e(  9 -  9) =     -5.00161  eV     1   --> A'             
     e( 10 - 10) =     -1.22221  eV     1   --> A'             
     e( 11 - 11) =     -0.46490  eV     1   --> A'             
     e( 12 - 12) =     -0.44977  eV     1   --> A''            
     e( 13 - 13) =      2.58215  eV     1   --> A'             
     e( 14 - 14) =      2.66321  eV     1   --> A''            
     e( 15 - 15) =      2.66603  eV     1   --> A'             
     e( 16 - 16) =      2.66988  eV     1   --> A'             
     e( 17 - 17) =      2.68187  eV     1   --> A''            
     e( 18 - 18) =      2.70039  eV     1   --> A''            
     e( 19 - 19) =      4.58903  eV     1   --> A'             
     e( 20 - 20) =      4.81484  eV     1   --> A'             
     e( 21 - 21) =      4.85885  eV     1   --> A''            
     e( 22 - 22) =      6.15856  eV     1   --> A'             
     e( 23 - 23) =      6.45539  eV     1   --> A''            
     e( 24 - 24) =      6.47240  eV     1   --> A'             
     e( 25 - 25) =      6.48980  eV     1   --> A'             
     e( 26 - 26) =      6.86899  eV     1   --> A'             
     e( 27 - 27) =      7.27987  eV     1   --> A''            
     e( 28 - 28) =      7.30361  eV     1   --> A'             
     e( 29 - 29) =      8.93810  eV     1   --> A'             
     e( 30 - 30) =      8.96041  eV     1   --> A''            
     e( 31 - 31) =      9.01906  eV     1   --> A'             
     e( 32 - 32) =     13.32648  eV     1   --> A'             
     e( 33 - 33) =     13.87523  eV     1   --> A''            
     e( 34 - 34) =     13.99466  eV     1   --> A'             
     e( 35 - 35) =     14.53379  eV     1   --> A''            
     e( 36 - 36) =     14.65068  eV     1   --> A'             
     e( 37 - 37) =     14.65257  eV     1   --> A''            
     e( 38 - 38) =     14.69080  eV     1   --> A'             
     e( 39 - 39) =     14.77483  eV     1   --> A'             
     e( 40 - 40) =     14.81823  eV     1   --> A''            
     e( 41 - 41) =     15.64709  eV     1   --> A'             
     e( 42 - 42) =     15.78810  eV     1   --> A'             
     e( 43 - 43) =     15.84092  eV     1   --> A''            
     e( 44 - 44) =     16.23869  eV     1   --> A'             
     e( 45 - 45) =     16.27779  eV     1   --> A'             
     e( 46 - 46) =     16.43639  eV     1   --> A''            
     e( 47 - 47) =     16.92409  eV     1   --> A''            
     e( 48 - 48) =     17.17319  eV     1   --> A''            
     e( 49 - 49) =     17.24585  eV     1   --> A'             
     e( 50 - 50) =     17.51569  eV     1   --> A'             
     e( 51 - 51) =     17.60048  eV     1   --> A'             
     e( 52 - 52) =     17.71818  eV     1   --> A''            
     e( 53 - 53) =     17.93193  eV     1   --> A''            
     e( 54 - 54) =     18.11677  eV     1   --> A''            
     e( 55 - 55) =     18.21030  eV     1   --> A'             
     e( 56 - 56) =     18.42374  eV     1   --> A'             
     e( 57 - 57) =     18.52830  eV     1   --> A'             
     e( 58 - 58) =     18.61802  eV     1   --> A''            
     e( 59 - 59) =     18.74013  eV     1   --> A''            
     e( 60 - 60) =     19.22334  eV     1   --> A''            
     e( 61 - 61) =     19.31773  eV     1   --> A'             
     e( 62 - 62) =     19.59510  eV     1   --> A'             
     e( 63 - 63) =     22.93008  eV     1   --> A'             
     e( 64 - 64) =     22.96323  eV     1   --> A''            

 **************************************************************************

 **************************************************************************

                    xk=(   0.07500,   0.00000,   0.07500  )

     Band symmetry, C_s (m)     point group:

     e(  1 -  1) =     -9.49851  eV     1   --> A'             
     e(  2 -  3) =     -9.49836  eV     2   --> A'             
     e(  2 -  3) =     -9.49836  eV     2   --> A''            
     e(  4 -  5) =     -9.43064  eV     2   --> A'             
     e(  4 -  5) =     -9.43064  eV     2   --> A''            
     e(  6 -  6) =     -6.91222  eV     1   --> A'             
     e(  7 -  7) =     -5.05005  eV     1   --> A'             
     e(  8 -  8) =     -5.04159  eV     1   --> A''            
     e(  9 -  9) =     -5.00010  eV     1   --> A'             
     e( 10 - 10) =     -1.18862  eV     1   --> A'             
     e( 11 - 11) =     -0.44145  eV     1   --> A'             
     e( 12 - 12) =     -0.40868  eV     1   --> A''            
     e( 13 - 13) =      2.46956  eV     1   --> A'             
     e( 14 - 14) =      2.64065  eV     1   --> A''            
     e( 15 - 15) =      2.64836  eV     1   --> A'             
     e( 16 - 16) =      2.65665  eV     1   --> A'             
     e( 17 - 17) =      2.67466  eV     1   --> A''            
     e( 18 - 18) =      2.71881  eV     1   --> A''            
     e( 19 - 19) =      4.33282  eV     1   --> A'             
     e( 20 - 20) =      4.75436  eV     1   --> A'             
     e( 21 - 21) =      4.85204  eV     1   --> A''            
     e( 22 - 22) =      6.28691  eV     1   --> A'             
     e( 23 - 23) =      6.52597  eV     1   --> A''            
     e( 24 - 24) =      6.55012  eV     1   --> A'             
     e( 25 - 25) =      6.61195  eV     1   --> A'             
     e( 26 - 26) =      7.00072  eV     1   --> A'             
     e( 27 - 27) =      7.35686  eV     1   --> A''            
     e( 28 - 28) =      7.42063  eV     1   --> A'             
     e( 29 - 29) =      8.93361  eV     1   --> A'             
     e( 30 - 30) =      8.98085  eV     1   --> A''            
     e( 31 - 31) =      9.11340  eV     1   --> A'             
     e( 32 - 32) =     13.43942  eV     1   --> A'             
     e( 33 - 33) =     13.70306  eV     1   --> A''            
     e( 34 - 34) =     13.93426  eV     1   --> A'             
     e( 35 - 35) =     14.22981  eV     1   --> A''            
     e( 36 - 36) =     14.38534  eV     1   --> A'             
     e( 37 - 37) =     14.50623  eV     1   --> A'             
     e( 38 - 38) =     14.51117  eV     1   --> A''            
     e( 39 - 39) =     14.63101  eV     1   --> A'             
     e( 40 - 40) =     14.69849  eV     1   --> A''            
     e( 41 - 41) =     15.48237  eV     1   --> A'             
     e( 42 - 42) =     15.61999  eV     1   --> A'             
     e( 43 - 43) =     15.68950  eV     1   --> A''            
     e( 44 - 44) =     16.22526  eV     1   --> A'             
     e( 45 - 45) =     16.33313  eV     1   --> A'             
     e( 46 - 46) =     16.57926  eV     1   --> A''            
     e( 47 - 47) =     16.74774  eV     1   --> A''            
     e( 48 - 48) =     17.18548  eV     1   --> A''            
     e( 49 - 49) =     17.21265  eV     1   --> A'             
     e( 50 - 50) =     17.58680  eV     1   --> A'             
     e( 51 - 51) =     17.65939  eV     1   --> A''            
     e( 52 - 52) =     17.66266  eV     1   --> A'             
     e( 53 - 53) =     18.08773  eV     1   --> A''            
     e( 54 - 54) =     18.23221  eV     1   --> A'             
     e( 55 - 55) =     18.25316  eV     1   --> A''            
     e( 56 - 56) =     18.60946  eV     1   --> A'             
     e( 57 - 57) =     18.78195  eV     1   --> A'             
     e( 58 - 58) =     18.81393  eV     1   --> A''            
     e( 59 - 59) =     19.04779  eV     1   --> A''            
     e( 60 - 60) =     19.52734  eV     1   --> A''            
     e( 61 - 61) =     19.70603  eV     1   --> A'             
     e( 62 - 62) =     19.80118  eV     1   --> A'             
     e( 63 - 63) =     22.45242  eV     1   --> A'             
     e( 64 - 64) =     22.46436  eV     1   --> A''            

 **************************************************************************

 **************************************************************************

                    xk=(   0.10000,   0.00000,   0.10000  )

     Band symmetry, C_s (m)     point group:

     e(  1 -  1) =     -9.49872  eV     1   --> A'             
     e(  2 -  3) =     -9.49844  eV     2   --> A'             
     e(  2 -  3) =     -9.49844  eV     2   --> A''            
     e(  4 -  5) =     -9.43063  eV     2   --> A'             
     e(  4 -  5) =     -9.43063  eV     2   --> A''            
     e(  6 -  6) =     -6.88419  eV     1   --> A'             
     e(  7 -  7) =     -5.08426  eV     1   --> A'             
     e(  8 -  8) =     -5.06991  eV     1   --> A''            
     e(  9 -  9) =     -4.99863  eV     1   --> A'             
     e( 10 - 10) =     -1.14475  eV     1   --> A'             
     e( 11 - 11) =     -0.40919  eV     1   --> A'             
     e( 12 - 12) =     -0.35389  eV     1   --> A''            
     e( 13 - 13) =      2.33128  eV     1   --> A'             
     e( 14 - 14) =      2.60954  eV     1   --> A''            
     e( 15 - 15) =      2.61942  eV     1   --> A'             
     e( 16 - 16) =      2.64760  eV     1   --> A'             
     e( 17 - 17) =      2.66855  eV     1   --> A''            
     e( 18 - 18) =      2.74493  eV     1   --> A''            
     e( 19 - 19) =      4.04957  eV     1   --> A'             
     e( 20 - 20) =      4.67079  eV     1   --> A'             
     e( 21 - 21) =      4.84172  eV     1   --> A''            
     e( 22 - 22) =      6.39943  eV     1   --> A'             
     e( 23 - 23) =      6.62304  eV     1   --> A''            
     e( 24 - 24) =      6.64125  eV     1   --> A'             
     e( 25 - 25) =      6.77774  eV     1   --> A'             
     e( 26 - 26) =      7.16041  eV     1   --> A'             
     e( 27 - 27) =      7.46207  eV     1   --> A''            
     e( 28 - 28) =      7.59759  eV     1   --> A'             
     e( 29 - 29) =      8.93205  eV     1   --> A'             
     e( 30 - 30) =      9.00937  eV     1   --> A''            
     e( 31 - 31) =      9.24494  eV     1   --> A'             
     e( 32 - 32) =     13.50818  eV     1   --> A''            
     e( 33 - 33) =     13.57076  eV     1   --> A'             
     e( 34 - 34) =     13.83909  eV     1   --> A''            
     e( 35 - 35) =     13.85825  eV     1   --> A'             
     e( 36 - 36) =     14.01309  eV     1   --> A'             
     e( 37 - 37) =     14.31409  eV     1   --> A'             
     e( 38 - 38) =     14.32735  eV     1   --> A''            
     e( 39 - 39) =     14.47432  eV     1   --> A'             
     e( 40 - 40) =     14.55549  eV     1   --> A''            
     e( 41 - 41) =     15.19988  eV     1   --> A'             
     e( 42 - 42) =     15.53829  eV     1   --> A'             
     e( 43 - 43) =     15.55209  eV     1   --> A''            
     e( 44 - 44) =     16.20351  eV     1   --> A'             
     e( 45 - 45) =     16.38493  eV     1   --> A''            
     e( 46 - 46) =     16.40782  eV     1   --> A'             
     e( 47 - 47) =     16.84604  eV     1   --> A''            
     e( 48 - 48) =     17.12585  eV     1   --> A'             
     e( 49 - 49) =     17.24139  eV     1   --> A''            
     e( 50 - 50) =     17.61911  eV     1   --> A''            
     e( 51 - 51) =     17.71750  eV     1   --> A'             
     e( 52 - 52) =     17.73667  eV     1   --> A'             
     e( 53 - 53) =     18.22654  eV     1   --> A''            
     e( 54 - 54) =     18.29589  eV     1   --> A'             
     e( 55 - 55) =     18.45994  eV     1   --> A''            
     e( 56 - 56) =     18.78921  eV     1   --> A'             
     e( 57 - 57) =     19.05161  eV     1   --> A''            
     e( 58 - 58) =     19.11138  eV     1   --> A'             
     e( 59 - 59) =     19.38995  eV     1   --> A''            
     e( 60 - 60) =     19.89877  eV     1   --> A''            
     e( 61 - 61) =     20.06104  eV     1   --> A'             
     e( 62 - 62) =     20.15317  eV     1   --> A'             
     e( 63 - 63) =     21.96569  eV     1   --> A''            
     e( 64 - 64) =     21.97065  eV     1   --> A'             

 **************************************************************************

 **************************************************************************

                    xk=(   0.12500,   0.00000,   0.12500  )

     Band symmetry, C_s (m)     point group:

     e(  1 -  1) =     -9.49893  eV     1   --> A'             
     e(  2 -  3) =     -9.49856  eV     2   --> A'             
     e(  2 -  3) =     -9.49856  eV     2   --> A''            
     e(  4 -  5) =     -9.43060  eV     2   --> A'             
     e(  4 -  5) =     -9.43060  eV     2   --> A''            
     e(  6 -  6) =     -6.84838  eV     1   --> A'             
     e(  7 -  7) =     -5.12543  eV     1   --> A'             
     e(  8 -  8) =     -5.10414  eV     1   --> A''            
     e(  9 -  9) =     -4.99775  eV     1   --> A'             
     e( 10 - 10) =     -1.09330  eV     1   --> A'             
     e( 11 - 11) =     -0.36876  eV     1   --> A'             
     e( 12 - 12) =     -0.28792  eV     1   --> A''            
     e( 13 - 13) =      2.17980  eV     1   --> A'             
     e( 14 - 14) =      2.57114  eV     1   --> A''            
     e( 15 - 15) =      2.58245  eV     1   --> A'             
     e( 16 - 16) =      2.64390  eV     1   --> A'             
     e( 17 - 17) =      2.66690  eV     1   --> A''            
     e( 18 - 18) =      2.77847  eV     1   --> A''            
     e( 19 - 19) =      3.75513  eV     1   --> A'             
     e( 20 - 20) =      4.56571  eV     1   --> A'             
     e( 21 - 21) =      4.82812  eV     1   --> A''            
     e( 22 - 22) =      6.50359  eV     1   --> A'             
     e( 23 - 23) =      6.74592  eV     1   --> A''            
     e( 24 - 24) =      6.74627  eV     1   --> A'             
     e( 25 - 25) =      6.96205  eV     1   --> A'             
     e( 26 - 26) =      7.33025  eV     1   --> A'             
     e( 27 - 27) =      7.59360  eV     1   --> A''            
     e( 28 - 28) =      7.83823  eV     1   --> A'             
     e( 29 - 29) =      8.93687  eV     1   --> A'             
     e( 30 - 30) =      9.04611  eV     1   --> A''            
     e( 31 - 31) =      9.41045  eV     1   --> A'             
     e( 32 - 32) =     13.30632  eV     1   --> A''            
     e( 33 - 33) =     13.40159  eV     1   --> A''            
     e( 34 - 34) =     13.47918  eV     1   --> A'             
     e( 35 - 35) =     13.75821  eV     1   --> A'             
     e( 36 - 36) =     13.85272  eV     1   --> A'             
     e( 37 - 37) =     14.10114  eV     1   --> A'             
     e( 38 - 38) =     14.11170  eV     1   --> A''            
     e( 39 - 39) =     14.30815  eV     1   --> A'             
     e( 40 - 40) =     14.39917  eV     1   --> A''            
     e( 41 - 41) =     14.89891  eV     1   --> A'             
     e( 42 - 42) =     15.41609  eV     1   --> A''            
     e( 43 - 43) =     15.45152  eV     1   --> A'             
     e( 44 - 44) =     16.11701  eV     1   --> A''            
     e( 45 - 45) =     16.18463  eV     1   --> A'             
     e( 46 - 46) =     16.50031  eV     1   --> A'             
     e( 47 - 47) =     16.82951  eV     1   --> A''            
     e( 48 - 48) =     17.01932  eV     1   --> A'             
     e( 49 - 49) =     17.41111  eV     1   --> A''            
     e( 50 - 50) =     17.69393  eV     1   --> A''            
     e( 51 - 51) =     17.77047  eV     1   --> A'             
     e( 52 - 52) =     17.92506  eV     1   --> A'             
     e( 53 - 53) =     18.36698  eV     1   --> A''            
     e( 54 - 54) =     18.39859  eV     1   --> A'             
     e( 55 - 55) =     18.67610  eV     1   --> A''            
     e( 56 - 56) =     18.96296  eV     1   --> A'             
     e( 57 - 57) =     19.31587  eV     1   --> A''            
     e( 58 - 58) =     19.47148  eV     1   --> A'             
     e( 59 - 59) =     19.71620  eV     1   --> A''            
     e( 60 - 60) =     20.33202  eV     1   --> A''            
     e( 61 - 61) =     20.37346  eV     1   --> A'             
     e( 62 - 62) =     20.60061  eV     1   --> A'             
     e( 63 - 63) =     21.49050  eV     1   --> A''            
     e( 64 - 64) =     21.52044  eV     1   --> A'             

 **************************************************************************

 **************************************************************************

                    xk=(   0.15000,   0.00000,   0.15000  )

     Band symmetry, C_s (m)     point group:

     e(  1 -  1) =     -9.49909  eV     1   --> A'             
     e(  2 -  3) =     -9.49864  eV     2   --> A'             
     e(  2 -  3) =     -9.49864  eV     2   --> A''            
     e(  4 -  4) =     -9.43056  eV     1   --> A'             
     e(  5 -  5) =     -9.43042  eV     1   --> A''            
     e(  6 -  6) =     -6.80499  eV     1   --> A'             
     e(  7 -  7) =     -5.17184  eV     1   --> A'             
     e(  8 -  8) =     -5.14312  eV     1   --> A''            
     e(  9 -  9) =     -4.99811  eV     1   --> A'             
     e( 10 - 10) =     -1.03713  eV     1   --> A'             
     e( 11 - 11) =     -0.32130  eV     1   --> A'             
     e( 12 - 12) =     -0.21389  eV     1   --> A''            
     e( 13 - 13) =      2.02592  eV     1   --> A'             
     e( 14 - 14) =      2.52686  eV     1   --> A''            
     e( 15 - 15) =      2.53896  eV     1   --> A'             
     e( 16 - 16) =      2.64907  eV     1   --> A'             
     e( 17 - 17) =      2.67325  eV     1   --> A''            
     e( 18 - 18) =      2.81921  eV     1   --> A''            
     e( 19 - 19) =      3.45816  eV     1   --> A'             
     e( 20 - 20) =      4.44154  eV     1   --> A'             
     e( 21 - 21) =      4.81029  eV     1   --> A''            
     e( 22 - 22) =      6.60408  eV     1   --> A'             
     e( 23 - 23) =      6.86998  eV     1   --> A'             
     e( 24 - 24) =      6.89251  eV     1   --> A''            
     e( 25 - 25) =      7.14862  eV     1   --> A'             
     e( 26 - 26) =      7.50270  eV     1   --> A'             
     e( 27 - 27) =      7.74924  eV     1   --> A''            
     e( 28 - 28) =      8.13574  eV     1   --> A'             
     e( 29 - 29) =      8.95153  eV     1   --> A'             
     e( 30 - 30) =      9.09095  eV     1   --> A''            
     e( 31 - 31) =      9.60285  eV     1   --> A'             
     e( 32 - 32) =     12.93376  eV     1   --> A''            
     e( 33 - 33) =     13.05159  eV     1   --> A'             
     e( 34 - 34) =     13.11713  eV     1   --> A''            
     e( 35 - 35) =     13.66590  eV     1   --> A'             
     e( 36 - 36) =     13.83054  eV     1   --> A'             
     e( 37 - 37) =     13.87503  eV     1   --> A''            
     e( 38 - 38) =     14.03658  eV     1   --> A'             
     e( 39 - 39) =     14.15287  eV     1   --> A'             
     e( 40 - 40) =     14.23158  eV     1   --> A''            
     e( 41 - 41) =     14.60370  eV     1   --> A'             
     e( 42 - 42) =     15.27209  eV     1   --> A''            
     e( 43 - 43) =     15.34688  eV     1   --> A'             
     e( 44 - 44) =     15.84268  eV     1   --> A''            
     e( 45 - 45) =     16.17712  eV     1   --> A'             
     e( 46 - 46) =     16.60423  eV     1   --> A'             
     e( 47 - 47) =     16.70325  eV     1   --> A''            
     e( 48 - 48) =     16.91436  eV     1   --> A'             
     e( 49 - 49) =     17.56534  eV     1   --> A''            
     e( 50 - 50) =     17.82246  eV     1   --> A'             
     e( 51 - 51) =     17.93336  eV     1   --> A''            
     e( 52 - 52) =     18.13365  eV     1   --> A'             
     e( 53 - 53) =     18.52085  eV     1   --> A''            
     e( 54 - 54) =     18.52581  eV     1   --> A'             
     e( 55 - 55) =     18.88194  eV     1   --> A''            
     e( 56 - 56) =     19.11936  eV     1   --> A'             
     e( 57 - 57) =     19.59352  eV     1   --> A''            
     e( 58 - 58) =     19.84017  eV     1   --> A'             
     e( 59 - 59) =     20.00917  eV     1   --> A''            
     e( 60 - 60) =     20.70301  eV     1   --> A'             
     e( 61 - 61) =     20.75257  eV     1   --> A''            
     e( 62 - 62) =     20.90181  eV     1   --> A'             
     e( 63 - 63) =     21.10358  eV     1   --> A''            
     e( 64 - 64) =     21.22427  eV     1   --> A'             

 **************************************************************************

 **************************************************************************

                    xk=(   0.17500,   0.00000,   0.17500  )

     Band symmetry, C_s (m)     point group:

     e(  1 -  1) =     -9.49931  eV     1   --> A'             
     e(  2 -  3) =     -9.49875  eV     2   --> A'             
     e(  2 -  3) =     -9.49875  eV     2   --> A''            
     e(  4 -  4) =     -9.43052  eV     1   --> A'             
     e(  5 -  5) =     -9.43034  eV     1   --> A''            
     e(  6 -  6) =     -6.75425  eV     1   --> A'             
     e(  7 -  7) =     -5.22196  eV     1   --> A'             
     e(  8 -  8) =     -5.18555  eV     1   --> A''            
     e(  9 -  9) =     -5.00074  eV     1   --> A'             
     e( 10 - 10) =     -0.97900  eV     1   --> A'             
     e( 11 - 11) =     -0.26856  eV     1   --> A'             
     e( 12 - 12) =     -0.13535  eV     1   --> A''            
     e( 13 - 13) =      1.87839  eV     1   --> A'             
     e( 14 - 14) =      2.47824  eV     1   --> A''            
     e( 15 - 15) =      2.49041  eV     1   --> A'             
     e( 16 - 16) =      2.66610  eV     1   --> A'             
     e( 17 - 17) =      2.69115  eV     1   --> A''            
     e( 18 - 18) =      2.86689  eV     1   --> A''            
     e( 19 - 19) =      3.16346  eV     1   --> A'             
     e( 20 - 20) =      4.30026  eV     1   --> A'             
     e( 21 - 21) =      4.78744  eV     1   --> A''            
     e( 22 - 22) =      6.70104  eV     1   --> A'             
     e( 23 - 23) =      7.01505  eV     1   --> A'             
     e( 24 - 24) =      7.06081  eV     1   --> A''            
     e( 25 - 25) =      7.32915  eV     1   --> A'             
     e( 26 - 26) =      7.67874  eV     1   --> A'             
     e( 27 - 27) =      7.92559  eV     1   --> A''            
     e( 28 - 28) =      8.47723  eV     1   --> A'             
     e( 29 - 29) =      8.97923  eV     1   --> A'             
     e( 30 - 30) =      9.14383  eV     1   --> A''            
     e( 31 - 31) =      9.81029  eV     1   --> A'             
     e( 32 - 32) =     12.46395  eV     1   --> A''            
     e( 33 - 33) =     12.58744  eV     1   --> A'             
     e( 34 - 34) =     12.93278  eV     1   --> A''            
     e( 35 - 35) =     13.58104  eV     1   --> A'             
     e( 36 - 36) =     13.60377  eV     1   --> A'             
     e( 37 - 37) =     13.62605  eV     1   --> A''            
     e( 38 - 38) =     13.90561  eV     1   --> A'             
     e( 39 - 39) =     14.05256  eV     1   --> A''            
     e( 40 - 40) =     14.22497  eV     1   --> A'             
     e( 41 - 41) =     14.38595  eV     1   --> A'             
     e( 42 - 42) =     15.11593  eV     1   --> A''            
     e( 43 - 43) =     15.22287  eV     1   --> A'             
     e( 44 - 44) =     15.57050  eV     1   --> A''            
     e( 45 - 45) =     16.18219  eV     1   --> A'             
     e( 46 - 46) =     16.53932  eV     1   --> A''            
     e( 47 - 47) =     16.66186  eV     1   --> A'             
     e( 48 - 48) =     16.87785  eV     1   --> A'             
     e( 49 - 49) =     17.67550  eV     1   --> A''            
     e( 50 - 50) =     17.86774  eV     1   --> A'             
     e( 51 - 51) =     18.25879  eV     1   --> A''            
     e( 52 - 52) =     18.34854  eV     1   --> A'             
     e( 53 - 53) =     18.66376  eV     1   --> A'             
     e( 54 - 54) =     18.69724  eV     1   --> A''            
     e( 55 - 55) =     19.06848  eV     1   --> A''            
     e( 56 - 56) =     19.24094  eV     1   --> A'             
     e( 57 - 57) =     19.86054  eV     1   --> A''            
     e( 58 - 58) =     20.17314  eV     1   --> A'             
     e( 59 - 59) =     20.24319  eV     1   --> A''            
     e( 60 - 60) =     20.62635  eV     1   --> A''            
     e( 61 - 61) =     20.63660  eV     1   --> A'             
     e( 62 - 62) =     21.06666  eV     1   --> A'             
     e( 63 - 63) =     21.31056  eV     1   --> A'             
     e( 64 - 64) =     21.31650  eV     1   --> A''            

 **************************************************************************

 **************************************************************************

                    xk=(   0.20000,   0.00000,   0.20000  )

     Band symmetry, C_s (m)     point group:

     e(  1 -  1) =     -9.49953  eV     1   --> A'             
     e(  2 -  3) =     -9.49888  eV     2   --> A'             
     e(  2 -  3) =     -9.49888  eV     2   --> A''            
     e(  4 -  4) =     -9.43048  eV     1   --> A'             
     e(  5 -  5) =     -9.43024  eV     1   --> A''            
     e(  6 -  6) =     -6.69646  eV     1   --> A'             
     e(  7 -  7) =     -5.27413  eV     1   --> A'             
     e(  8 -  8) =     -5.23008  eV     1   --> A''            
     e(  9 -  9) =     -5.00661  eV     1   --> A'             
     e( 10 - 10) =     -0.92121  eV     1   --> A'             
     e( 11 - 11) =     -0.21276  eV     1   --> A'             
     e( 12 - 12) =     -0.05584  eV     1   --> A''            
     e( 13 - 13) =      1.74440  eV     1   --> A'             
     e( 14 - 14) =      2.42692  eV     1   --> A''            
     e( 15 - 15) =      2.43813  eV     1   --> A'             
     e( 16 - 16) =      2.69445  eV     1   --> A'             
     e( 17 - 17) =      2.72392  eV     1   --> A''            
     e( 18 - 18) =      2.87869  eV     1   --> A'             
     e( 19 - 19) =      2.92128  eV     1   --> A''            
     e( 20 - 20) =      4.14464  eV     1   --> A'             
     e( 21 - 21) =      4.75899  eV     1   --> A''            
     e( 22 - 22) =      6.79527  eV     1   --> A'             
     e( 23 - 23) =      7.18043  eV     1   --> A'             
     e( 24 - 24) =      7.24888  eV     1   --> A''            
     e( 25 - 25) =      7.50017  eV     1   --> A'             
     e( 26 - 26) =      7.86349  eV     1   --> A'             
     e( 27 - 27) =      8.12093  eV     1   --> A''            
     e( 28 - 28) =      8.84186  eV     1   --> A'             
     e( 29 - 29) =      9.03066  eV     1   --> A'             
     e( 30 - 30) =      9.20472  eV     1   --> A''            
     e( 31 - 31) =     10.01736  eV     1   --> A'             
     e( 32 - 32) =     11.99489  eV     1   --> A''            
     e( 33 - 33) =     12.12110  eV     1   --> A'             
     e( 34 - 34) =     12.76486  eV     1   --> A''            
     e( 35 - 35) =     13.36195  eV     1   --> A'             
     e( 36 - 36) =     13.37165  eV     1   --> A''            
     e( 37 - 37) =     13.51717  eV     1   --> A'             
     e( 38 - 38) =     13.68259  eV     1   --> A'             
     e( 39 - 39) =     13.86151  eV     1   --> A''            
     e( 40 - 40) =     14.03242  eV     1   --> A'             
     e( 41 - 41) =     14.54649  eV     1   --> A'             
     e( 42 - 42) =     14.94499  eV     1   --> A''            
     e( 43 - 43) =     15.08880  eV     1   --> A'             
     e( 44 - 44) =     15.30803  eV     1   --> A''            
     e( 45 - 45) =     16.19495  eV     1   --> A'             
     e( 46 - 46) =     16.36118  eV     1   --> A''            
     e( 47 - 47) =     16.59437  eV     1   --> A'             
     e( 48 - 48) =     17.00196  eV     1   --> A'             
     e( 49 - 49) =     17.77216  eV     1   --> A''            
     e( 50 - 50) =     17.89603  eV     1   --> A'             
     e( 51 - 51) =     18.55260  eV     1   --> A''            
     e( 52 - 52) =     18.56015  eV     1   --> A'             
     e( 53 - 53) =     18.79989  eV     1   --> A'             
     e( 54 - 54) =     18.93317  eV     1   --> A''            
     e( 55 - 55) =     19.22291  eV     1   --> A''            
     e( 56 - 56) =     19.30432  eV     1   --> A'             
     e( 57 - 57) =     19.98156  eV     1   --> A''            
     e( 58 - 58) =     20.22511  eV     1   --> A'             
     e( 59 - 59) =     20.30377  eV     1   --> A''            
     e( 60 - 60) =     20.56400  eV     1   --> A'             
     e( 61 - 61) =     20.62609  eV     1   --> A''            
     e( 62 - 62) =     21.09307  eV     1   --> A'             
     e( 63 - 63) =     21.24021  eV     1   --> A'             
     e( 64 - 64) =     21.33195  eV     1   --> A''            

 **************************************************************************

 **************************************************************************

                    xk=(   0.22500,   0.00000,   0.22500  )

     Band symmetry, C_s (m)     point group:

     e(  1 -  1) =     -9.49979  eV     1   --> A'             
     e(  2 -  3) =     -9.49905  eV     2   --> A'             
     e(  2 -  3) =     -9.49905  eV     2   --> A''            
     e(  4 -  4) =     -9.43044  eV     1   --> A'             
     e(  5 -  5) =     -9.43015  eV     1   --> A''            
     e(  6 -  6) =     -6.63198  eV     1   --> A'             
     e(  7 -  7) =     -5.32691  eV     1   --> A'             
     e(  8 -  8) =     -5.27539  eV     1   --> A''            
     e(  9 -  9) =     -5.01683  eV     1   --> A'             
     e( 10 - 10) =     -0.86542  eV     1   --> A'             
     e( 11 - 11) =     -0.15652  eV     1   --> A'             
     e( 12 - 12) =      0.02113  eV     1   --> A''            
     e( 13 - 13) =      1.62969  eV     1   --> A'             
     e( 14 - 14) =      2.37446  eV     1   --> A''            
     e( 15 - 15) =      2.38180  eV     1   --> A'             
     e( 16 - 16) =      2.58003  eV     1   --> A'             
     e( 17 - 17) =      2.76449  eV     1   --> A'             
     e( 18 - 18) =      2.77439  eV     1   --> A''            
     e( 19 - 19) =      2.98213  eV     1   --> A''            
     e( 20 - 20) =      3.97729  eV     1   --> A'             
     e( 21 - 21) =      4.72491  eV     1   --> A''            
     e( 22 - 22) =      6.88864  eV     1   --> A'             
     e( 23 - 23) =      7.35979  eV     1   --> A'             
     e( 24 - 24) =      7.45527  eV     1   --> A''            
     e( 25 - 25) =      7.66125  eV     1   --> A'             
     e( 26 - 26) =      8.06155  eV     1   --> A'             
     e( 27 - 27) =      8.33179  eV     1   --> A''            
     e( 28 - 28) =      9.04668  eV     1   --> A'             
     e( 29 - 29) =      9.27375  eV     1   --> A''            
     e( 30 - 30) =      9.27944  eV     1   --> A'             
     e( 31 - 31) =     10.20634  eV     1   --> A'             
     e( 32 - 32) =     11.53382  eV     1   --> A''            
     e( 33 - 33) =     11.66268  eV     1   --> A'             
     e( 34 - 34) =     12.61362  eV     1   --> A''            
     e( 35 - 35) =     13.11816  eV     1   --> A''            
     e( 36 - 36) =     13.12708  eV     1   --> A'             
     e( 37 - 37) =     13.41853  eV     1   --> A'             
     e( 38 - 38) =     13.47098  eV     1   --> A'             
     e( 39 - 39) =     13.65843  eV     1   --> A''            
     e( 40 - 40) =     13.83652  eV     1   --> A'             
     e( 41 - 41) =     14.71441  eV     1   --> A'             
     e( 42 - 42) =     14.75506  eV     1   --> A''            
     e( 43 - 43) =     14.99878  eV     1   --> A'             
     e( 44 - 44) =     15.06364  eV     1   --> A''            
     e( 45 - 45) =     16.17610  eV     1   --> A''            
     e( 46 - 46) =     16.19351  eV     1   --> A'             
     e( 47 - 47) =     16.51442  eV     1   --> A'             
     e( 48 - 48) =     17.19971  eV     1   --> A'             
     e( 49 - 49) =     17.85651  eV     1   --> A''            
     e( 50 - 50) =     17.89689  eV     1   --> A'             
     e( 51 - 51) =     18.72374  eV     1   --> A''            
     e( 52 - 52) =     18.75747  eV     1   --> A'             
     e( 53 - 53) =     18.91455  eV     1   --> A'             
     e( 54 - 54) =     19.25820  eV     1   --> A''            
     e( 55 - 55) =     19.28530  eV     1   --> A'             
     e( 56 - 56) =     19.30972  eV     1   --> A''            
     e( 57 - 57) =     19.83813  eV     1   --> A''            
     e( 58 - 58) =     20.03173  eV     1   --> A'             
     e( 59 - 59) =     20.49176  eV     1   --> A''            
     e( 60 - 60) =     20.56071  eV     1   --> A'             
     e( 61 - 61) =     20.83628  eV     1   --> A''            
     e( 62 - 62) =     21.03687  eV     1   --> A'             
     e( 63 - 63) =     21.15865  eV     1   --> A'             
     e( 64 - 64) =     21.25330  eV     1   --> A''            

 **************************************************************************

 **************************************************************************

                    xk=(   0.25000,   0.00000,   0.25000  )

     Band symmetry, C_s (m)     point group:

     e(  1 -  1) =     -9.50011  eV     1   --> A'             
     e(  2 -  3) =     -9.49925  eV     2   --> A'             
     e(  2 -  3) =     -9.49925  eV     2   --> A''            
     e(  4 -  4) =     -9.43042  eV     1   --> A'             
     e(  5 -  5) =     -9.43010  eV     1   --> A''            
     e(  6 -  6) =     -6.56125  eV     1   --> A'             
     e(  7 -  7) =     -5.37896  eV     1   --> A'             
     e(  8 -  8) =     -5.32048  eV     1   --> A''            
     e(  9 -  9) =     -5.03256  eV     1   --> A'             
     e( 10 - 10) =     -0.81258  eV     1   --> A'             
     e( 11 - 11) =     -0.10245  eV     1   --> A'             
     e( 12 - 12) =      0.09239  eV     1   --> A''            
     e( 13 - 13) =      1.53860  eV     1   --> A'             
     e( 14 - 14) =      2.27932  eV     1   --> A'             
     e( 15 - 15) =      2.32228  eV     1   --> A''            
     e( 16 - 16) =      2.35970  eV     1   --> A'             
     e( 17 - 17) =      2.83122  eV     1   --> A'             
     e( 18 - 18) =      2.84435  eV     1   --> A''            
     e( 19 - 19) =      3.04895  eV     1   --> A''            
     e( 20 - 20) =      3.80082  eV     1   --> A'             
     e( 21 - 21) =      4.68390  eV     1   --> A''            
     e( 22 - 22) =      6.98245  eV     1   --> A'             
     e( 23 - 23) =      7.54072  eV     1   --> A'             
     e( 24 - 24) =      7.67719  eV     1   --> A''            
     e( 25 - 25) =      7.82050  eV     1   --> A'             
     e( 26 - 26) =      8.27248  eV     1   --> A'             
     e( 27 - 27) =      8.55458  eV     1   --> A''            
     e( 28 - 28) =      9.12238  eV     1   --> A'             
     e( 29 - 29) =      9.35071  eV     1   --> A''            
     e( 30 - 30) =      9.68522  eV     1   --> A'             
     e( 31 - 31) =     10.36003  eV     1   --> A'             
     e( 32 - 32) =     11.08668  eV     1   --> A''            
     e( 33 - 33) =     11.22251  eV     1   --> A'             
     e( 34 - 34) =     12.47708  eV     1   --> A''            
     e( 35 - 35) =     12.87092  eV     1   --> A''            
     e( 36 - 36) =     12.90152  eV     1   --> A'             
     e( 37 - 37) =     13.15656  eV     1   --> A'             
     e( 38 - 38) =     13.35704  eV     1   --> A'             
     e( 39 - 39) =     13.44094  eV     1   --> A''            
     e( 40 - 40) =     13.75494  eV     1   --> A'             
     e( 41 - 41) =     14.54229  eV     1   --> A''            
     e( 42 - 42) =     14.65548  eV     1   --> A'             
     e( 43 - 43) =     14.84221  eV     1   --> A''            
     e( 44 - 44) =     15.12617  eV     1   --> A'             
     e( 45 - 45) =     15.98587  eV     1   --> A''            
     e( 46 - 46) =     16.13703  eV     1   --> A'             
     e( 47 - 47) =     16.49347  eV     1   --> A'             
     e( 48 - 48) =     17.43975  eV     1   --> A'             
     e( 49 - 49) =     17.86184  eV     1   --> A'             
     e( 50 - 50) =     17.92265  eV     1   --> A''            
     e( 51 - 51) =     18.76557  eV     1   --> A''            
     e( 52 - 52) =     18.91278  eV     1   --> A'             
     e( 53 - 53) =     18.99282  eV     1   --> A'             
     e( 54 - 54) =     19.19464  eV     1   --> A'             
     e( 55 - 55) =     19.21449  eV     1   --> A''            
     e( 56 - 56) =     19.61096  eV     1   --> A''            
     e( 57 - 57) =     19.88628  eV     1   --> A'             
     e( 58 - 58) =     19.89995  eV     1   --> A''            
     e( 59 - 59) =     20.39897  eV     1   --> A'             
     e( 60 - 60) =     20.68698  eV     1   --> A''            
     e( 61 - 61) =     20.97451  eV     1   --> A'             
     e( 62 - 62) =     21.05790  eV     1   --> A''            
     e( 63 - 63) =     21.16510  eV     1   --> A'             
     e( 64 - 64) =     21.28727  eV     1   --> A''            

 **************************************************************************

 **************************************************************************

                    xk=(   0.27500,   0.00000,   0.27500  )

     Band symmetry, C_s (m)     point group:

     e(  1 -  1) =     -9.50030  eV     1   --> A'             
     e(  2 -  3) =     -9.49934  eV     2   --> A'             
     e(  2 -  3) =     -9.49934  eV     2   --> A''            
     e(  4 -  4) =     -9.43035  eV     1   --> A'             
     e(  5 -  5) =     -9.42998  eV     1   --> A''            
     e(  6 -  6) =     -6.48474  eV     1   --> A'             
     e(  7 -  7) =     -5.42886  eV     1   --> A'             
     e(  8 -  8) =     -5.36402  eV     1   --> A''            
     e(  9 -  9) =     -5.05460  eV     1   --> A'             
     e( 10 - 10) =     -0.76280  eV     1   --> A'             
     e( 11 - 11) =     -0.05266  eV     1   --> A'             
     e( 12 - 12) =      0.15590  eV     1   --> A''            
     e( 13 - 13) =      1.47434  eV     1   --> A'             
     e( 14 - 14) =      2.03347  eV     1   --> A'             
     e( 15 - 15) =      2.27171  eV     1   --> A''            
     e( 16 - 16) =      2.29064  eV     1   --> A'             
     e( 17 - 17) =      2.92354  eV     1   --> A'             
     e( 18 - 18) =      2.93467  eV     1   --> A''            
     e( 19 - 19) =      3.12162  eV     1   --> A''            
     e( 20 - 20) =      3.61855  eV     1   --> A'             
     e( 21 - 21) =      4.63682  eV     1   --> A''            
     e( 22 - 22) =      7.07862  eV     1   --> A'             
     e( 23 - 23) =      7.70396  eV     1   --> A'             
     e( 24 - 24) =      7.91354  eV     1   --> A''            
     e( 25 - 25) =      7.99687  eV     1   --> A'             
     e( 26 - 26) =      8.49088  eV     1   --> A'             
     e( 27 - 27) =      8.78589  eV     1   --> A''            
     e( 28 - 28) =      9.20582  eV     1   --> A'             
     e( 29 - 29) =      9.43605  eV     1   --> A''            
     e( 30 - 30) =     10.09742  eV     1   --> A'             
     e( 31 - 31) =     10.46322  eV     1   --> A'             
     e( 32 - 32) =     10.66061  eV     1   --> A''            
     e( 33 - 33) =     10.82055  eV     1   --> A'             
     e( 34 - 34) =     12.34840  eV     1   --> A''            
     e( 35 - 35) =     12.64389  eV     1   --> A''            
     e( 36 - 36) =     12.69114  eV     1   --> A'             
     e( 37 - 37) =     12.88767  eV     1   --> A'             
     e( 38 - 38) =     13.17172  eV     1   --> A'             
     e( 39 - 39) =     13.21092  eV     1   --> A''            
     e( 40 - 40) =     13.81339  eV     1   --> A'             
     e( 41 - 41) =     14.31070  eV     1   --> A''            
     e( 42 - 42) =     14.49858  eV     1   --> A'             
     e( 43 - 43) =     14.64487  eV     1   --> A''            
     e( 44 - 44) =     15.34582  eV     1   --> A'             
     e( 45 - 45) =     15.79738  eV     1   --> A''            
     e( 46 - 46) =     16.02722  eV     1   --> A'             
     e( 47 - 47) =     16.54355  eV     1   --> A'             
     e( 48 - 48) =     17.71233  eV     1   --> A'             
     e( 49 - 49) =     17.79818  eV     1   --> A'             
     e( 50 - 50) =     17.96279  eV     1   --> A''            
     e( 51 - 51) =     18.69161  eV     1   --> A''            
     e( 52 - 52) =     18.93096  eV     1   --> A'             
     e( 53 - 53) =     19.05044  eV     1   --> A'             
     e( 54 - 54) =     19.06896  eV     1   --> A''            
     e( 55 - 55) =     19.12494  eV     1   --> A'             
     e( 56 - 56) =     19.74840  eV     1   --> A'             
     e( 57 - 57) =     19.85627  eV     1   --> A''            
     e( 58 - 58) =     20.24231  eV     1   --> A''            
     e( 59 - 59) =     20.29248  eV     1   --> A'             
     e( 60 - 60) =     20.83918  eV     1   --> A''            
     e( 61 - 61) =     20.86930  eV     1   --> A'             
     e( 62 - 62) =     21.24668  eV     1   --> A'             
     e( 63 - 63) =     21.26872  eV     1   --> A''            
     e( 64 - 64) =     21.45288  eV     1   --> A''            

 **************************************************************************

 **************************************************************************

                    xk=(   0.30000,   0.00000,   0.30000  )

     Band symmetry, C_s (m)     point group:

     e(  1 -  1) =     -9.50055  eV     1   --> A'             
     e(  2 -  3) =     -9.49949  eV     2   --> A'             
     e(  2 -  3) =     -9.49949  eV     2   --> A''            
     e(  4 -  4) =     -9.43030  eV     1   --> A'             
     e(  5 -  5) =     -9.42990  eV     1   --> A''            
     e(  6 -  6) =     -6.40307  eV     1   --> A'             
     e(  7 -  7) =     -5.47581  eV     1   --> A'             
     e(  8 -  8) =     -5.40531  eV     1   --> A''            
     e(  9 -  9) =     -5.08414  eV     1   --> A'             
     e( 10 - 10) =     -0.71560  eV     1   --> A'             
     e( 11 - 11) =     -0.00859  eV     1   --> A'             
     e( 12 - 12) =      0.21002  eV     1   --> A''            
     e( 13 - 13) =      1.43836  eV     1   --> A'             
     e( 14 - 14) =      1.78260  eV     1   --> A'             
     e( 15 - 15) =      2.22383  eV     1   --> A''            
     e( 16 - 16) =      2.23995  eV     1   --> A'             
     e( 17 - 17) =      3.03617  eV     1   --> A'             
     e( 18 - 18) =      3.04422  eV     1   --> A''            
     e( 19 - 19) =      3.19954  eV     1   --> A''            
     e( 20 - 20) =      3.43215  eV     1   --> A'             
     e( 21 - 21) =      4.58258  eV     1   --> A''            
     e( 22 - 22) =      7.17661  eV     1   --> A'             
     e( 23 - 23) =      7.83268  eV     1   --> A'             
     e( 24 - 24) =      8.16062  eV     1   --> A''            
     e( 25 - 25) =      8.20312  eV     1   --> A'             
     e( 26 - 26) =      8.70234  eV     1   --> A'             
     e( 27 - 27) =      9.01377  eV     1   --> A''            
     e( 28 - 28) =      9.30272  eV     1   --> A'             
     e( 29 - 29) =      9.52958  eV     1   --> A''            
     e( 30 - 30) =     10.26858  eV     1   --> A''            
     e( 31 - 31) =     10.37025  eV     1   --> A'             
     e( 32 - 32) =     10.47415  eV     1   --> A'             
     e( 33 - 33) =     10.62893  eV     1   --> A'             
     e( 34 - 34) =     12.20017  eV     1   --> A''            
     e( 35 - 35) =     12.46221  eV     1   --> A''            
     e( 36 - 36) =     12.49150  eV     1   --> A'             
     e( 37 - 37) =     12.64439  eV     1   --> A'             
     e( 38 - 38) =     12.95082  eV     1   --> A'             
     e( 39 - 39) =     12.96797  eV     1   --> A''            
     e( 40 - 40) =     13.92146  eV     1   --> A'             
     e( 41 - 41) =     14.06946  eV     1   --> A''            
     e( 42 - 42) =     14.36421  eV     1   --> A'             
     e( 43 - 43) =     14.45918  eV     1   --> A''            
     e( 44 - 44) =     15.56548  eV     1   --> A'             
     e( 45 - 45) =     15.61097  eV     1   --> A''            
     e( 46 - 46) =     15.89747  eV     1   --> A'             
     e( 47 - 47) =     16.63222  eV     1   --> A'             
     e( 48 - 48) =     17.68337  eV     1   --> A'             
     e( 49 - 49) =     17.96090  eV     1   --> A''            
     e( 50 - 50) =     18.04257  eV     1   --> A'             
     e( 51 - 51) =     18.56291  eV     1   --> A''            
     e( 52 - 52) =     18.83486  eV     1   --> A'             
     e( 53 - 53) =     18.94446  eV     1   --> A''            
     e( 54 - 54) =     18.98823  eV     1   --> A'             
     e( 55 - 55) =     19.16330  eV     1   --> A'             
     e( 56 - 56) =     19.56293  eV     1   --> A'             
     e( 57 - 57) =     20.08401  eV     1   --> A''            
     e( 58 - 58) =     20.29962  eV     1   --> A'             
     e( 59 - 59) =     20.66281  eV     1   --> A''            
     e( 60 - 60) =     20.79676  eV     1   --> A'             
     e( 61 - 61) =     20.98224  eV     1   --> A''            
     e( 62 - 62) =     21.32153  eV     1   --> A'             
     e( 63 - 63) =     21.38720  eV     1   --> A'             
     e( 64 - 64) =     21.45215  eV     1   --> A''            

 **************************************************************************

 **************************************************************************

                    xk=(   0.32500,   0.00000,   0.32500  )

     Band symmetry, C_s (m)     point group:

     e(  1 -  1) =     -9.50084  eV     1   --> A'             
     e(  2 -  3) =     -9.49966  eV     2   --> A'             
     e(  2 -  3) =     -9.49966  eV     2   --> A''            
     e(  4 -  4) =     -9.43028  eV     1   --> A'             
     e(  5 -  5) =     -9.42982  eV     1   --> A''            
     e(  6 -  6) =     -6.31700  eV     1   --> A'             
     e(  7 -  7) =     -5.51887  eV     1   --> A'             
     e(  8 -  8) =     -5.44348  eV     1   --> A''            
     e(  9 -  9) =     -5.12186  eV     1   --> A'             
     e( 10 - 10) =     -0.66990  eV     1   --> A'             
     e( 11 - 11) =      0.02952  eV     1   --> A'             
     e( 12 - 12) =      0.25441  eV     1   --> A''            
     e( 13 - 13) =      1.42966  eV     1   --> A'             
     e( 14 - 14) =      1.54427  eV     1   --> A'             
     e( 15 - 15) =      2.17960  eV     1   --> A''            
     e( 16 - 16) =      2.19431  eV     1   --> A'             
     e( 17 - 17) =      3.16623  eV     1   --> A'             
     e( 18 - 18) =      3.17027  eV     1   --> A''            
     e( 19 - 19) =      3.24390  eV     1   --> A'             
     e( 20 - 20) =      3.28240  eV     1   --> A''            
     e( 21 - 21) =      4.52148  eV     1   --> A''            
     e( 22 - 22) =      7.27578  eV     1   --> A'             
     e( 23 - 23) =      7.92773  eV     1   --> A'             
     e( 24 - 24) =      8.41337  eV     1   --> A''            
     e( 25 - 25) =      8.43178  eV     1   --> A'             
     e( 26 - 26) =      8.87747  eV     1   --> A'             
     e( 27 - 27) =      9.20445  eV     1   --> A''            
     e( 28 - 28) =      9.41608  eV     1   --> A'             
     e( 29 - 29) =      9.63155  eV     1   --> A''            
     e( 30 - 30) =      9.95014  eV     1   --> A''            
     e( 31 - 31) =     10.10325  eV     1   --> A'             
     e( 32 - 32) =     10.56625  eV     1   --> A'             
     e( 33 - 33) =     10.87709  eV     1   --> A'             
     e( 34 - 34) =     12.00987  eV     1   --> A''            
     e( 35 - 35) =     12.26726  eV     1   --> A'             
     e( 36 - 36) =     12.34723  eV     1   --> A''            
     e( 37 - 37) =     12.49057  eV     1   --> A'             
     e( 38 - 38) =     12.71705  eV     1   --> A''            
     e( 39 - 39) =     12.72652  eV     1   --> A'             
     e( 40 - 40) =     13.82641  eV     1   --> A''            
     e( 41 - 41) =     13.89515  eV     1   --> A'             
     e( 42 - 42) =     14.27716  eV     1   --> A''            
     e( 43 - 43) =     14.41709  eV     1   --> A'             
     e( 44 - 44) =     15.43318  eV     1   --> A''            
     e( 45 - 45) =     15.70112  eV     1   --> A'             
     e( 46 - 46) =     15.83653  eV     1   --> A'             
     e( 47 - 47) =     16.74558  eV     1   --> A'             
     e( 48 - 48) =     17.56947  eV     1   --> A'             
     e( 49 - 49) =     17.90225  eV     1   --> A''            
     e( 50 - 50) =     18.38937  eV     1   --> A'             
     e( 51 - 51) =     18.46400  eV     1   --> A''            
     e( 52 - 52) =     18.70951  eV     1   --> A'             
     e( 53 - 53) =     18.82937  eV     1   --> A''            
     e( 54 - 54) =     18.89759  eV     1   --> A'             
     e( 55 - 55) =     19.14175  eV     1   --> A'             
     e( 56 - 56) =     19.36494  eV     1   --> A'             
     e( 57 - 57) =     20.32738  eV     1   --> A''            
     e( 58 - 58) =     20.34503  eV     1   --> A'             
     e( 59 - 59) =     20.66366  eV     1   --> A'             
     e( 60 - 60) =     20.94487  eV     1   --> A'             
     e( 61 - 61) =     20.99880  eV     1   --> A''            
     e( 62 - 62) =     21.22073  eV     1   --> A''            
     e( 63 - 63) =     21.50882  eV     1   --> A'             
     e( 64 - 64) =     21.62467  eV     1   --> A''            

 **************************************************************************

 **************************************************************************

                    xk=(   0.35000,   0.00000,   0.35000  )

     Band symmetry, C_s (m)     point group:

     e(  1 -  1) =     -9.50104  eV     1   --> A'             
     e(  2 -  3) =     -9.49976  eV     2   --> A'             
     e(  2 -  3) =     -9.49976  eV     2   --> A''            
     e(  4 -  4) =     -9.43025  eV     1   --> A'             
     e(  5 -  5) =     -9.42974  eV     1   --> A''            
     e(  6 -  6) =     -6.22741  eV     1   --> A'             
     e(  7 -  7) =     -5.55710  eV     1   --> A'             
     e(  8 -  8) =     -5.47780  eV     1   --> A''            
     e(  9 -  9) =     -5.16797  eV     1   --> A'             
     e( 10 - 10) =     -0.62445  eV     1   --> A'             
     e( 11 - 11) =      0.06263  eV     1   --> A'             
     e( 12 - 12) =      0.28953  eV     1   --> A''            
     e( 13 - 13) =      1.31320  eV     1   --> A'             
     e( 14 - 14) =      1.45510  eV     1   --> A'             
     e( 15 - 15) =      2.13983  eV     1   --> A''            
     e( 16 - 16) =      2.15376  eV     1   --> A'             
     e( 17 - 17) =      3.05625  eV     1   --> A'             
     e( 18 - 18) =      3.30766  eV     1   --> A''            
     e( 19 - 19) =      3.30934  eV     1   --> A'             
     e( 20 - 20) =      3.37043  eV     1   --> A''            
     e( 21 - 21) =      4.45399  eV     1   --> A''            
     e( 22 - 22) =      7.37507  eV     1   --> A'             
     e( 23 - 23) =      7.99472  eV     1   --> A'             
     e( 24 - 24) =      8.64921  eV     1   --> A'             
     e( 25 - 25) =      8.65397  eV     1   --> A''            
     e( 26 - 26) =      8.97375  eV     1   --> A'             
     e( 27 - 27) =      9.23889  eV     1   --> A''            
     e( 28 - 28) =      9.55179  eV     1   --> A'             
     e( 29 - 29) =      9.74244  eV     1   --> A''            
     e( 30 - 30) =      9.84236  eV     1   --> A''            
     e( 31 - 31) =      9.94785  eV     1   --> A'             
     e( 32 - 32) =     10.57507  eV     1   --> A'             
     e( 33 - 33) =     11.09294  eV     1   --> A'             
     e( 34 - 34) =     11.79603  eV     1   --> A''            
     e( 35 - 35) =     12.01702  eV     1   --> A'             
     e( 36 - 36) =     12.25926  eV     1   --> A''            
     e( 37 - 37) =     12.36621  eV     1   --> A'             
     e( 38 - 38) =     12.48215  eV     1   --> A''            
     e( 39 - 39) =     12.63416  eV     1   --> A'             
     e( 40 - 40) =     13.58672  eV     1   --> A''            
     e( 41 - 41) =     13.71300  eV     1   --> A'             
     e( 42 - 42) =     14.09453  eV     1   --> A''            
     e( 43 - 43) =     14.66062  eV     1   --> A'             
     e( 44 - 44) =     15.27082  eV     1   --> A''            
     e( 45 - 45) =     15.59636  eV     1   --> A'             
     e( 46 - 46) =     16.00863  eV     1   --> A'             
     e( 47 - 47) =     16.87960  eV     1   --> A'             
     e( 48 - 48) =     17.45833  eV     1   --> A'             
     e( 49 - 49) =     17.79865  eV     1   --> A''            
     e( 50 - 50) =     18.41666  eV     1   --> A''            
     e( 51 - 51) =     18.57355  eV     1   --> A'             
     e( 52 - 52) =     18.72113  eV     1   --> A''            
     e( 53 - 53) =     18.74770  eV     1   --> A'             
     e( 54 - 54) =     18.77874  eV     1   --> A'             
     e( 55 - 55) =     19.07689  eV     1   --> A'             
     e( 56 - 56) =     19.18866  eV     1   --> A'             
     e( 57 - 57) =     20.08767  eV     1   --> A'             
     e( 58 - 58) =     20.46154  eV     1   --> A'             
     e( 59 - 59) =     20.57866  eV     1   --> A''            
     e( 60 - 60) =     21.01259  eV     1   --> A'             
     e( 61 - 61) =     21.16155  eV     1   --> A''            
     e( 62 - 62) =     21.62276  eV     1   --> A''            
     e( 63 - 63) =     21.63916  eV     1   --> A'             
     e( 64 - 64) =     21.79476  eV     1   --> A''            

 **************************************************************************

 **************************************************************************

                    xk=(   0.37500,   0.00000,   0.37500  )

     Band symmetry, C_s (m)     point group:

     e(  1 -  1) =     -9.50122  eV     1   --> A'             
     e(  2 -  3) =     -9.49986  eV     2   --> A'             
     e(  2 -  3) =     -9.49986  eV     2   --> A''            
     e(  4 -  4) =     -9.43024  eV     1   --> A'             
     e(  5 -  5) =     -9.42969  eV     1   --> A''            
     e(  6 -  6) =     -6.13547  eV     1   --> A'             
     e(  7 -  7) =     -5.58978  eV     1   --> A'             
     e(  8 -  8) =     -5.50774  eV     1   --> A''            
     e(  9 -  9) =     -5.22256  eV     1   --> A'             
     e( 10 - 10) =     -0.57836  eV     1   --> A'             
     e( 11 - 11) =      0.09268  eV     1   --> A'             
     e( 12 - 12) =      0.31625  eV     1   --> A''            
     e( 13 - 13) =      1.10339  eV     1   --> A'             
     e( 14 - 14) =      1.50019  eV     1   --> A'             
     e( 15 - 15) =      2.10515  eV     1   --> A''            
     e( 16 - 16) =      2.11858  eV     1   --> A'             
     e( 17 - 17) =      2.87084  eV     1   --> A'             
     e( 18 - 18) =      3.44288  eV     1   --> A''            
     e( 19 - 19) =      3.45894  eV     1   --> A'             
     e( 20 - 20) =      3.46988  eV     1   --> A''            
     e( 21 - 21) =      4.38017  eV     1   --> A''            
     e( 22 - 22) =      7.47140  eV     1   --> A'             
     e( 23 - 23) =      8.03518  eV     1   --> A'             
     e( 24 - 24) =      8.71044  eV     1   --> A'             
     e( 25 - 25) =      8.77018  eV     1   --> A''            
     e( 26 - 26) =      9.08997  eV     1   --> A'             
     e( 27 - 27) =      9.18570  eV     1   --> A''            
     e( 28 - 28) =      9.70492  eV     1   --> A'             
     e( 29 - 29) =      9.86257  eV     1   --> A''            
     e( 30 - 30) =      9.97621  eV     1   --> A'             
     e( 31 - 31) =      9.98810  eV     1   --> A''            
     e( 32 - 32) =     10.57305  eV     1   --> A'             
     e( 33 - 33) =     11.15039  eV     1   --> A'             
     e( 34 - 34) =     11.57837  eV     1   --> A''            
     e( 35 - 35) =     11.76579  eV     1   --> A'             
     e( 36 - 36) =     12.08177  eV     1   --> A''            
     e( 37 - 37) =     12.12483  eV     1   --> A'             
     e( 38 - 38) =     12.35998  eV     1   --> A''            
     e( 39 - 39) =     12.83675  eV     1   --> A'             
     e( 40 - 40) =     13.35308  eV     1   --> A''            
     e( 41 - 41) =     13.48821  eV     1   --> A'             
     e( 42 - 42) =     13.90891  eV     1   --> A''            
     e( 43 - 43) =     14.95696  eV     1   --> A'             
     e( 44 - 44) =     15.12918  eV     1   --> A''            
     e( 45 - 45) =     15.47609  eV     1   --> A'             
     e( 46 - 46) =     16.19217  eV     1   --> A'             
     e( 47 - 47) =     17.02775  eV     1   --> A'             
     e( 48 - 48) =     17.36836  eV     1   --> A'             
     e( 49 - 49) =     17.68173  eV     1   --> A''            
     e( 50 - 50) =     18.39755  eV     1   --> A''            
     e( 51 - 51) =     18.45599  eV     1   --> A'             
     e( 52 - 52) =     18.55333  eV     1   --> A'             
     e( 53 - 53) =     18.62646  eV     1   --> A''            
     e( 54 - 54) =     18.97051  eV     1   --> A'             
     e( 55 - 55) =     19.01898  eV     1   --> A'             
     e( 56 - 56) =     19.19690  eV     1   --> A'             
     e( 57 - 57) =     19.59301  eV     1   --> A'             
     e( 58 - 58) =     20.43237  eV     1   --> A'             
     e( 59 - 59) =     20.81706  eV     1   --> A''            
     e( 60 - 60) =     21.18196  eV     1   --> A'             
     e( 61 - 61) =     21.30187  eV     1   --> A''            
     e( 62 - 62) =     21.73549  eV     1   --> A'             
     e( 63 - 63) =     21.95643  eV     1   --> A''            
     e( 64 - 64) =     22.03232  eV     1   --> A''            

 **************************************************************************

 **************************************************************************

                    xk=(   0.40000,   0.00000,   0.40000  )

     Band symmetry, C_s (m)     point group:

     e(  1 -  1) =     -9.50135  eV     1   --> A'             
     e(  2 -  3) =     -9.49990  eV     2   --> A'             
     e(  2 -  3) =     -9.49990  eV     2   --> A''            
     e(  4 -  4) =     -9.43019  eV     1   --> A'             
     e(  5 -  5) =     -9.42958  eV     1   --> A''            
     e(  6 -  6) =     -6.04281  eV     1   --> A'             
     e(  7 -  7) =     -5.61587  eV     1   --> A'             
     e(  8 -  8) =     -5.53279  eV     1   --> A''            
     e(  9 -  9) =     -5.28516  eV     1   --> A'             
     e( 10 - 10) =     -0.53175  eV     1   --> A'             
     e( 11 - 11) =      0.12267  eV     1   --> A'             
     e( 12 - 12) =      0.33595  eV     1   --> A''            
     e( 13 - 13) =      0.90972  eV     1   --> A'             
     e( 14 - 14) =      1.56960  eV     1   --> A'             
     e( 15 - 15) =      2.07612  eV     1   --> A''            
     e( 16 - 16) =      2.08915  eV     1   --> A'             
     e( 17 - 17) =      2.68953  eV     1   --> A'             
     e( 18 - 18) =      3.54680  eV     1   --> A''            
     e( 19 - 19) =      3.60114  eV     1   --> A''            
     e( 20 - 20) =      3.60696  eV     1   --> A'             
     e( 21 - 21) =      4.30104  eV     1   --> A''            
     e( 22 - 22) =      7.55963  eV     1   --> A'             
     e( 23 - 23) =      8.04854  eV     1   --> A'             
     e( 24 - 24) =      8.57998  eV     1   --> A'             
     e( 25 - 25) =      8.61495  eV     1   --> A''            
     e( 26 - 26) =      9.33305  eV     1   --> A'             
     e( 27 - 27) =      9.36907  eV     1   --> A''            
     e( 28 - 28) =      9.86135  eV     1   --> A'             
     e( 29 - 29) =      9.99198  eV     1   --> A''            
     e( 30 - 30) =     10.13452  eV     1   --> A'             
     e( 31 - 31) =     10.21061  eV     1   --> A''            
     e( 32 - 32) =     10.57646  eV     1   --> A'             
     e( 33 - 33) =     11.08910  eV     1   --> A'             
     e( 34 - 34) =     11.36480  eV     1   --> A''            
     e( 35 - 35) =     11.52259  eV     1   --> A'             
     e( 36 - 36) =     11.81474  eV     1   --> A''            
     e( 37 - 37) =     11.85184  eV     1   --> A'             
     e( 38 - 38) =     12.34529  eV     1   --> A''            
     e( 39 - 39) =     13.12929  eV     1   --> A''            
     e( 40 - 40) =     13.15574  eV     1   --> A'             
     e( 41 - 41) =     13.29693  eV     1   --> A'             
     e( 42 - 42) =     13.72977  eV     1   --> A''            
     e( 43 - 43) =     15.01328  eV     1   --> A''            
     e( 44 - 44) =     15.24073  eV     1   --> A'             
     e( 45 - 45) =     15.37455  eV     1   --> A'             
     e( 46 - 46) =     16.36176  eV     1   --> A'             
     e( 47 - 47) =     17.14553  eV     1   --> A'             
     e( 48 - 48) =     17.35551  eV     1   --> A'             
     e( 49 - 49) =     17.57645  eV     1   --> A''            
     e( 50 - 50) =     18.30384  eV     1   --> A'             
     e( 51 - 51) =     18.35970  eV     1   --> A'             
     e( 52 - 52) =     18.38301  eV     1   --> A''            
     e( 53 - 53) =     18.55447  eV     1   --> A''            
     e( 54 - 54) =     18.83731  eV     1   --> A'             
     e( 55 - 55) =     18.91353  eV     1   --> A'             
     e( 56 - 56) =     19.11814  eV     1   --> A'             
     e( 57 - 57) =     19.64410  eV     1   --> A'             
     e( 58 - 58) =     20.30323  eV     1   --> A'             
     e( 59 - 59) =     21.00652  eV     1   --> A''            
     e( 60 - 60) =     21.35998  eV     1   --> A'             
     e( 61 - 61) =     21.47811  eV     1   --> A''            
     e( 62 - 62) =     21.79755  eV     1   --> A'             
     e( 63 - 63) =     22.12107  eV     1   --> A''            
     e( 64 - 64) =     22.38305  eV     1   --> A'             

 **************************************************************************

 **************************************************************************

                    xk=(   0.42500,   0.00000,   0.42500  )

     Band symmetry, C_s (m)     point group:

     e(  1 -  1) =     -9.50150  eV     1   --> A'             
     e(  2 -  3) =     -9.49997  eV     2   --> A'             
     e(  2 -  3) =     -9.49997  eV     2   --> A''            
     e(  4 -  4) =     -9.43017  eV     1   --> A'             
     e(  5 -  5) =     -9.42954  eV     1   --> A''            
     e(  6 -  6) =     -5.95219  eV     1   --> A'             
     e(  7 -  7) =     -5.63389  eV     1   --> A'             
     e(  8 -  8) =     -5.55269  eV     1   --> A''            
     e(  9 -  9) =     -5.35491  eV     1   --> A'             
     e( 10 - 10) =     -0.48655  eV     1   --> A'             
     e( 11 - 11) =      0.15668  eV     1   --> A'             
     e( 12 - 12) =      0.34969  eV     1   --> A''            
     e( 13 - 13) =      0.73457  eV     1   --> A'             
     e( 14 - 14) =      1.65955  eV     1   --> A'             
     e( 15 - 15) =      2.05312  eV     1   --> A''            
     e( 16 - 16) =      2.06578  eV     1   --> A'             
     e( 17 - 17) =      2.51383  eV     1   --> A'             
     e( 18 - 18) =      3.64288  eV     1   --> A''            
     e( 19 - 19) =      3.72908  eV     1   --> A''            
     e( 20 - 20) =      3.74204  eV     1   --> A'             
     e( 21 - 21) =      4.21682  eV     1   --> A''            
     e( 22 - 22) =      7.62782  eV     1   --> A'             
     e( 23 - 23) =      8.03976  eV     1   --> A'             
     e( 24 - 24) =      8.40383  eV     1   --> A''            
     e( 25 - 25) =      8.42836  eV     1   --> A'             
     e( 26 - 26) =      9.61153  eV     1   --> A'             
     e( 27 - 27) =      9.64150  eV     1   --> A''            
     e( 28 - 28) =     10.02401  eV     1   --> A'             
     e( 29 - 29) =     10.13082  eV     1   --> A''            
     e( 30 - 30) =     10.33573  eV     1   --> A'             
     e( 31 - 31) =     10.43650  eV     1   --> A''            
     e( 32 - 32) =     10.59624  eV     1   --> A'             
     e( 33 - 33) =     10.96887  eV     1   --> A'             
     e( 34 - 34) =     11.15740  eV     1   --> A''            
     e( 35 - 35) =     11.29061  eV     1   --> A'             
     e( 36 - 36) =     11.52644  eV     1   --> A''            
     e( 37 - 37) =     11.57050  eV     1   --> A'             
     e( 38 - 38) =     12.36282  eV     1   --> A''            
     e( 39 - 39) =     12.92176  eV     1   --> A''            
     e( 40 - 40) =     13.00180  eV     1   --> A'             
     e( 41 - 41) =     13.55891  eV     1   --> A''            
     e( 42 - 42) =     13.65296  eV     1   --> A'             
     e( 43 - 43) =     14.92359  eV     1   --> A''            
     e( 44 - 44) =     15.28465  eV     1   --> A'             
     e( 45 - 45) =     15.45252  eV     1   --> A'             
     e( 46 - 46) =     16.52557  eV     1   --> A'             
     e( 47 - 47) =     17.14294  eV     1   --> A'             
     e( 48 - 48) =     17.49059  eV     1   --> A''            
     e( 49 - 49) =     17.51507  eV     1   --> A'             
     e( 50 - 50) =     18.06094  eV     1   --> A'             
     e( 51 - 51) =     18.25248  eV     1   --> A'             
     e( 52 - 52) =     18.36011  eV     1   --> A''            
     e( 53 - 53) =     18.51165  eV     1   --> A''            
     e( 54 - 54) =     18.62913  eV     1   --> A'             
     e( 55 - 55) =     18.72366  eV     1   --> A'             
     e( 56 - 56) =     18.93804  eV     1   --> A'             
     e( 57 - 57) =     19.98331  eV     1   --> A'             
     e( 58 - 58) =     20.13778  eV     1   --> A'             
     e( 59 - 59) =     21.12311  eV     1   --> A''            
     e( 60 - 60) =     21.48580  eV     1   --> A'             
     e( 61 - 61) =     21.71251  eV     1   --> A''            
     e( 62 - 62) =     21.88911  eV     1   --> A'             
     e( 63 - 63) =     22.26952  eV     1   --> A''            
     e( 64 - 64) =     22.44476  eV     1   --> A'             

 **************************************************************************

 **************************************************************************

                    xk=(   0.45000,   0.00000,   0.45000  )

     Band symmetry, C_s (m)     point group:

     e(  1 -  1) =     -9.50155  eV     1   --> A'             
     e(  2 -  3) =     -9.50001  eV     2   --> A'             
     e(  2 -  3) =     -9.50001  eV     2   --> A''            
     e(  4 -  4) =     -9.43014  eV     1   --> A'             
[...]
     e( 10 - 10) =     -1.08506  eV     1   --> A'             
     e( 11 - 11) =     -0.37070  eV     1   --> A''            
     e( 12 - 12) =     -0.27039  eV     1   --> A'             
     e( 13 - 13) =      2.28357  eV     1   --> A'             
     e( 14 - 14) =      2.31027  eV     1   --> A''            
     e( 15 - 15) =      2.56075  eV     1   --> A'             
     e( 16 - 16) =      2.72427  eV     1   --> A'             
     e( 17 - 17) =      2.72893  eV     1   --> A''            
     e( 18 - 18) =      2.79388  eV     1   --> A''            
     e( 19 - 19) =      3.69142  eV     1   --> A'             
     e( 20 - 20) =      4.66013  eV     1   --> A''            
     e( 21 - 21) =      4.73984  eV     1   --> A'             
     e( 22 - 22) =      6.48280  eV     1   --> A'             
     e( 23 - 23) =      6.72093  eV     1   --> A'             
     e( 24 - 24) =      6.79509  eV     1   --> A''            
     e( 25 - 25) =      6.99821  eV     1   --> A'             
     e( 26 - 26) =      7.36635  eV     1   --> A'             
     e( 27 - 27) =      7.69472  eV     1   --> A'             
     e( 28 - 28) =      7.80616  eV     1   --> A''            
     e( 29 - 29) =      8.87094  eV     1   --> A'             
     e( 30 - 30) =      9.27074  eV     1   --> A''            
     e( 31 - 31) =      9.30114  eV     1   --> A'             
     e( 32 - 32) =     13.24121  eV     1   --> A'             
     e( 33 - 33) =     13.52276  eV     1   --> A'             
     e( 34 - 34) =     13.57836  eV     1   --> A''            
     e( 35 - 35) =     13.64459  eV     1   --> A'             
     e( 36 - 36) =     13.77812  eV     1   --> A''            
     e( 37 - 37) =     13.89114  eV     1   --> A'             
     e( 38 - 38) =     14.02896  eV     1   --> A''            
     e( 39 - 39) =     14.21112  eV     1   --> A''            
     e( 40 - 40) =     14.28546  eV     1   --> A'             
     e( 41 - 41) =     15.16134  eV     1   --> A''            
     e( 42 - 42) =     15.27085  eV     1   --> A'             
     e( 43 - 43) =     15.44271  eV     1   --> A'             
     e( 44 - 44) =     15.99336  eV     1   --> A'             
     e( 45 - 45) =     16.44564  eV     1   --> A''            
     e( 46 - 46) =     16.74851  eV     1   --> A'             
     e( 47 - 47) =     16.83157  eV     1   --> A''            
     e( 48 - 48) =     17.27245  eV     1   --> A'             
     e( 49 - 49) =     17.37655  eV     1   --> A''            
     e( 50 - 50) =     17.47549  eV     1   --> A'             
     e( 51 - 51) =     17.56504  eV     1   --> A''            
     e( 52 - 52) =     17.77497  eV     1   --> A'             
     e( 53 - 53) =     17.96307  eV     1   --> A''            
     e( 54 - 54) =     18.65019  eV     1   --> A''            
     e( 55 - 55) =     18.79907  eV     1   --> A'             
     e( 56 - 56) =     19.15046  eV     1   --> A''            
     e( 57 - 57) =     19.20569  eV     1   --> A'             
     e( 58 - 58) =     19.55048  eV     1   --> A'             
     e( 59 - 59) =     20.04585  eV     1   --> A''            
     e( 60 - 60) =     20.40012  eV     1   --> A'             
     e( 61 - 61) =     20.43620  eV     1   --> A'             
     e( 62 - 62) =     20.49208  eV     1   --> A''            
     e( 63 - 63) =     21.24480  eV     1   --> A'             
     e( 64 - 64) =     21.55900  eV     1   --> A'             

 **************************************************************************

 **************************************************************************

                    xk=(   0.05625,   0.05625,   0.11100  )

     Band symmetry, C_s (m)     point group:

     e(  1 -  1) =     -9.49865  eV     1   --> A'             
     e(  2 -  3) =     -9.49842  eV     2   --> A'             
     e(  2 -  3) =     -9.49842  eV     2   --> A''            
     e(  4 -  5) =     -9.43062  eV     2   --> A'             
     e(  4 -  5) =     -9.43062  eV     2   --> A''            
     e(  6 -  6) =     -6.88850  eV     1   --> A'             
     e(  7 -  7) =     -5.09701  eV     1   --> A'             
     e(  8 -  8) =     -5.02532  eV     1   --> A'             
     e(  9 -  9) =     -5.02109  eV     1   --> A''            
     e( 10 - 10) =     -1.15123  eV     1   --> A'             
     e( 11 - 11) =     -0.41674  eV     1   --> A''            
     e( 12 - 12) =     -0.35988  eV     1   --> A'             
     e( 13 - 13) =      2.43193  eV     1   --> A'             
     e( 14 - 14) =      2.45200  eV     1   --> A''            
     e( 15 - 15) =      2.60521  eV     1   --> A'             
     e( 16 - 16) =      2.70538  eV     1   --> A'             
     e( 17 - 17) =      2.70949  eV     1   --> A''            
     e( 18 - 18) =      2.74647  eV     1   --> A''            
     e( 19 - 19) =      4.07999  eV     1   --> A'             
     e( 20 - 20) =      4.74403  eV     1   --> A''            
     e( 21 - 21) =      4.79487  eV     1   --> A'             
     e( 22 - 22) =      6.36880  eV     1   --> A'             
     e( 23 - 23) =      6.59464  eV     1   --> A'             
     e( 24 - 24) =      6.64802  eV     1   --> A''            
     e( 25 - 25) =      6.75331  eV     1   --> A'             
     e( 26 - 26) =      7.14143  eV     1   --> A'             
     e( 27 - 27) =      7.47198  eV     1   --> A'             
     e( 28 - 28) =      7.54298  eV     1   --> A''            
     e( 29 - 29) =      8.89033  eV     1   --> A'             
     e( 30 - 30) =      9.13658  eV     1   --> A''            
     e( 31 - 31) =      9.13797  eV     1   --> A'             
     e( 32 - 32) =     13.49342  eV     1   --> A'             
     e( 33 - 33) =     13.59616  eV     1   --> A'             
     e( 34 - 34) =     13.87777  eV     1   --> A''            
     e( 35 - 35) =     14.04095  eV     1   --> A'             
     e( 36 - 36) =     14.07335  eV     1   --> A''            
     e( 37 - 37) =     14.17813  eV     1   --> A'             
     e( 38 - 38) =     14.35788  eV     1   --> A''            
     e( 39 - 39) =     14.44064  eV     1   --> A''            
     e( 40 - 40) =     14.52891  eV     1   --> A'             
     e( 41 - 41) =     15.41354  eV     1   --> A''            
     e( 42 - 42) =     15.47685  eV     1   --> A'             
     e( 43 - 43) =     15.54460  eV     1   --> A'             
     e( 44 - 44) =     16.09312  eV     1   --> A'             
     e( 45 - 45) =     16.55120  eV     1   --> A''            
     e( 46 - 46) =     16.67734  eV     1   --> A''            
     e( 47 - 47) =     16.72882  eV     1   --> A'             
     e( 48 - 48) =     17.09291  eV     1   --> A'             
     e( 49 - 49) =     17.33038  eV     1   --> A''            
     e( 50 - 50) =     17.46110  eV     1   --> A'             
     e( 51 - 51) =     17.62208  eV     1   --> A''            
     e( 52 - 52) =     17.73727  eV     1   --> A'             
     e( 53 - 53) =     17.91368  eV     1   --> A''            
     e( 54 - 54) =     18.47928  eV     1   --> A''            
     e( 55 - 55) =     18.57779  eV     1   --> A'             
     e( 56 - 56) =     18.79179  eV     1   --> A''            
     e( 57 - 57) =     18.79263  eV     1   --> A'             
     e( 58 - 58) =     19.14618  eV     1   --> A'             
     e( 59 - 59) =     19.46496  eV     1   --> A''            
     e( 60 - 60) =     19.90268  eV     1   --> A'             
     e( 61 - 61) =     19.97939  eV     1   --> A''            
     e( 62 - 62) =     20.02762  eV     1   --> A'             
     e( 63 - 63) =     21.89265  eV     1   --> A'             
     e( 64 - 64) =     22.14066  eV     1   --> A'             

 **************************************************************************

 **************************************************************************

                    xk=(   0.03750,   0.03750,   0.07400  )

     Band symmetry, C_s (m)     point group:

     e(  1 -  1) =     -9.49843  eV     1   --> A'             
     e(  2 -  3) =     -9.49831  eV     2   --> A'             
     e(  2 -  3) =     -9.49831  eV     2   --> A''            
     e(  4 -  5) =     -9.43065  eV     2   --> A'             
     e(  4 -  5) =     -9.43065  eV     2   --> A''            
     e(  6 -  6) =     -6.92175  eV     1   --> A'             
     e(  7 -  7) =     -5.04617  eV     1   --> A'             
     e(  8 -  8) =     -5.01310  eV     1   --> A'             
     e(  9 -  9) =     -5.01118  eV     1   --> A''            
     e( 10 - 10) =     -1.20428  eV     1   --> A'             
     e( 11 - 11) =     -0.45294  eV     1   --> A''            
     e( 12 - 12) =     -0.42759  eV     1   --> A'             
     e( 13 - 13) =      2.56015  eV     1   --> A'             
     e( 14 - 14) =      2.57345  eV     1   --> A''            
     e( 15 - 15) =      2.64512  eV     1   --> A'             
     e( 16 - 16) =      2.69272  eV     1   --> A'             
     e( 17 - 17) =      2.69584  eV     1   --> A''            
     e( 18 - 18) =      2.71271  eV     1   --> A''            
     e( 19 - 19) =      4.44265  eV     1   --> A'             
     e( 20 - 20) =      4.80889  eV     1   --> A''            
     e( 21 - 21) =      4.83356  eV     1   --> A'             
     e( 22 - 22) =      6.23176  eV     1   --> A'             
     e( 23 - 23) =      6.49052  eV     1   --> A'             
     e( 24 - 24) =      6.52064  eV     1   --> A''            
     e( 25 - 25) =      6.55134  eV     1   --> A'             
     e( 26 - 26) =      6.94061  eV     1   --> A'             
     e( 27 - 27) =      7.32581  eV     1   --> A'             
     e( 28 - 28) =      7.35857  eV     1   --> A''            
     e( 29 - 29) =      8.91552  eV     1   --> A'             
     e( 30 - 30) =      9.02745  eV     1   --> A'             
     e( 31 - 31) =      9.03258  eV     1   --> A''            
     e( 32 - 32) =     13.38682  eV     1   --> A'             
     e( 33 - 33) =     13.77916  eV     1   --> A'             
     e( 34 - 34) =     13.96517  eV     1   --> A''            
     e( 35 - 35) =     14.44253  eV     1   --> A'             
     e( 36 - 36) =     14.45419  eV     1   --> A''            
     e( 37 - 37) =     14.57056  eV     1   --> A'             
     e( 38 - 38) =     14.61742  eV     1   --> A''            
     e( 39 - 39) =     14.65768  eV     1   --> A''            
     e( 40 - 40) =     14.73582  eV     1   --> A'             
     e( 41 - 41) =     15.60503  eV     1   --> A'             
     e( 42 - 42) =     15.67885  eV     1   --> A''            
     e( 43 - 43) =     15.72860  eV     1   --> A'             
     e( 44 - 44) =     16.17813  eV     1   --> A'             
     e( 45 - 45) =     16.39621  eV     1   --> A''            
     e( 46 - 46) =     16.51959  eV     1   --> A'             
     e( 47 - 47) =     16.85820  eV     1   --> A''            
     e( 48 - 48) =     17.11248  eV     1   --> A'             
     e( 49 - 49) =     17.27261  eV     1   --> A''            
     e( 50 - 50) =     17.46493  eV     1   --> A'             
     e( 51 - 51) =     17.65268  eV     1   --> A''            
     e( 52 - 52) =     17.74936  eV     1   --> A'             
     e( 53 - 53) =     17.88932  eV     1   --> A''            
     e( 54 - 54) =     18.26178  eV     1   --> A'             
     e( 55 - 55) =     18.30319  eV     1   --> A''            
     e( 56 - 56) =     18.52766  eV     1   --> A''            
     e( 57 - 57) =     18.52934  eV     1   --> A'             
     e( 58 - 58) =     18.76222  eV     1   --> A'             
     e( 59 - 59) =     18.95254  eV     1   --> A''            
     e( 60 - 60) =     19.42569  eV     1   --> A'             
     e( 61 - 61) =     19.49030  eV     1   --> A''            
     e( 62 - 62) =     19.70467  eV     1   --> A'             
     e( 63 - 63) =     22.59255  eV     1   --> A'             
     e( 64 - 64) =     22.73966  eV     1   --> A'             

 **************************************************************************

 **************************************************************************

                    xk=(   0.01875,   0.01875,   0.03700  )

     Band symmetry, C_s (m)     point group:

     e(  1 -  3) =     -9.49826  eV     3   -->   2 A'             
     e(  1 -  3) =     -9.49826  eV     3   --> A''            
     e(  4 -  5) =     -9.43067  eV     2   --> A'             
     e(  4 -  5) =     -9.43067  eV     2   --> A''            
     e(  6 -  6) =     -6.94181  eV     1   --> A'             
     e(  7 -  7) =     -5.01401  eV     1   --> A'             
     e(  8 -  8) =     -5.00556  eV     1   --> A'             
     e(  9 -  9) =     -5.00508  eV     1   --> A''            
     e( 10 - 10) =     -1.23863  eV     1   --> A'             
     e( 11 - 11) =     -0.47593  eV     1   --> A''            
     e( 12 - 12) =     -0.46960  eV     1   --> A'             
     e( 13 - 13) =      2.64807  eV     1   --> A'             
     e( 14 - 14) =      2.65580  eV     1   --> A''            
     e( 15 - 15) =      2.67179  eV     1   --> A'             
     e( 16 - 17) =      2.68664  eV     2   --> A'             
     e( 16 - 17) =      2.68664  eV     2   --> A''            
     e( 18 - 18) =      2.69402  eV     1   --> A''            
     e( 19 - 19) =      4.73719  eV     1   --> A'             
     e( 20 - 20) =      4.84993  eV     1   --> A''            
     e( 21 - 21) =      4.85643  eV     1   --> A'             
     e( 22 - 22) =      6.06666  eV     1   --> A'             
     e( 23 - 23) =      6.42156  eV     1   --> A'             
     e( 24 - 24) =      6.43088  eV     1   --> A''            
     e( 25 - 25) =      6.43539  eV     1   --> A'             
     e( 26 - 26) =      6.80301  eV     1   --> A'             
     e( 27 - 27) =      7.24374  eV     1   --> A'             
     e( 28 - 28) =      7.25202  eV     1   --> A''            
     e( 29 - 29) =      8.93614  eV     1   --> A'             
     e( 30 - 30) =      8.96442  eV     1   --> A'             
     e( 31 - 31) =      8.96663  eV     1   --> A''            
     e( 32 - 32) =     13.27050  eV     1   --> A'             
     e( 33 - 33) =     13.97075  eV     1   --> A'             
     e( 34 - 34) =     14.02462  eV     1   --> A''            
     e( 35 - 35) =     14.69338  eV     1   --> A'             
     e( 36 - 36) =     14.69439  eV     1   --> A''            
     e( 37 - 37) =     14.73522  eV     1   --> A''            
     e( 38 - 38) =     14.83781  eV     1   --> A'             
     e( 39 - 39) =     14.85799  eV     1   --> A''            
     e( 40 - 40) =     14.87807  eV     1   --> A'             
     e( 41 - 41) =     15.70157  eV     1   --> A'             
     e( 42 - 42) =     15.93943  eV     1   --> A''            
     e( 43 - 43) =     15.95025  eV     1   --> A'             
     e( 44 - 44) =     16.22367  eV     1   --> A'             
     e( 45 - 45) =     16.27571  eV     1   --> A''            
     e( 46 - 46) =     16.31480  eV     1   --> A'             
     e( 47 - 47) =     17.07207  eV     1   --> A''            
     e( 48 - 48) =     17.17253  eV     1   --> A'             
     e( 49 - 49) =     17.21495  eV     1   --> A''            
     e( 50 - 50) =     17.50436  eV     1   --> A'             
     e( 51 - 51) =     17.59547  eV     1   --> A''            
     e( 52 - 52) =     17.65012  eV     1   --> A'             
     e( 53 - 53) =     17.86077  eV     1   --> A''            
     e( 54 - 54) =     18.12016  eV     1   --> A'             
     e( 55 - 55) =     18.17599  eV     1   --> A''            
     e( 56 - 56) =     18.30269  eV     1   --> A'             
     e( 57 - 57) =     18.43111  eV     1   --> A''            
     e( 58 - 58) =     18.51842  eV     1   --> A'             
     e( 59 - 59) =     18.58139  eV     1   --> A''            
     e( 60 - 60) =     19.05836  eV     1   --> A'             
     e( 61 - 61) =     19.09264  eV     1   --> A''            
     e( 62 - 62) =     19.49380  eV     1   --> A'             
     e( 63 - 63) =     23.22326  eV     1   --> A'             
     e( 64 - 64) =     23.28536  eV     1   --> A'             

 **************************************************************************

 **************************************************************************

                    xk=(   0.00000,   0.00000,   0.00000  )

     point group T_d (-43m) 
     there are  5 classes
     the character table:

       E     8C3   3C2   6S4   6s_d 
A_1    1.00  1.00  1.00  1.00  1.00
A_2    1.00  1.00  1.00 -1.00 -1.00
E      2.00 -1.00  2.00  0.00  0.00
T_1    3.00  0.00 -1.00  1.00 -1.00
T_2    3.00  0.00 -1.00 -1.00  1.00

     the symmetry operations in each class and the name of the first element:

     E        1
                                                                 
     8C3      5    7    8    6   12    9   10   11
                                                                 
     3C2      2    3    4
                                                                 
     6S4     15   16   20   19   23   24
                                                                 
     6s_d    13   14   17   18   21   22
                                                                 

     Band symmetry, T_d (-43m)  point group:

     e(  1 -  3) =     -9.49819  eV     3   --> T_2  G_15 P_4  
     e(  4 -  5) =     -9.43064  eV     2   --> E    G_12 P_3  
     e(  6 -  6) =     -6.94850  eV     1   --> A_1  G_1  P_1  
     e(  7 -  9) =     -5.00298  eV     3   --> T_2  G_15 P_4  
     e( 10 - 10) =     -1.25053  eV     1   --> A_1  G_1  P_1  
     e( 11 - 12) =     -0.48377  eV     2   --> E    G_12 P_3  
     e( 13 - 15) =      2.67819  eV     3   --> T_2  G_15 P_4  
     e( 16 - 18) =      2.68928  eV     3   --> T_1  G_25 P_5  
     e( 19 - 21) =      4.86418  eV     3   --> T_2  G_15 P_4  
     e( 22 - 22) =      5.97902  eV     1   --> A_1  G_1  P_1  
     e( 23 - 25) =      6.39840  eV     3   --> T_2  G_15 P_4  
     e( 26 - 26) =      6.75535  eV     1   --> A_1  G_1  P_1  
     e( 27 - 28) =      7.21786  eV     2   --> E    G_12 P_3  
     e( 29 - 31) =      8.94409  eV     3   --> T_2  G_15 P_4  
     e( 32 - 32) =     13.22987  eV     1   --> A_1  G_1  P_1  
     e( 33 - 34) =     14.04782  eV     2   --> E    G_12 P_3  
     e( 35 - 37) =     14.77504  eV     3   --> T_1  G_25 P_5  
     e( 38 - 40) =     14.92921  eV     3   --> T_2  G_15 P_4  
     e( 41 - 41) =     15.75050  eV     1   --> A_1  G_1  P_1  
     e( 42 - 43) =     16.06751  eV     2   --> E    G_12 P_3  
     e( 44 - 46) =     16.23334  eV     3   --> T_2  G_15 P_4  
     e( 47 - 49) =     17.18275  eV     3   --> T_1  G_25 P_5  
     e( 50 - 52) =     17.54578  eV     3   --> T_2  G_15 P_4  
     e( 53 - 53) =     17.80234  eV     1   --> A_2  G_2  P_2  
     e( 54 - 56) =     18.16304  eV     3   --> T_2  G_15 P_4  
     e( 57 - 59) =     18.44379  eV     3   --> T_1  G_25 P_5  
     e( 60 - 61) =     18.91102  eV     2   --> E    G_12 P_3  
     e( 62 - 62) =     19.41985  eV     1   --> A_1  G_1  P_1  
     e( 63 - 63) =     23.45395  eV     1   --> A_1  G_1  P_1  
     e( 64 - 64) =     23.62044  eV     1   -->   ?

 **************************************************************************

     BANDS        :   1m 6.49s CPU     20.33s WALL


   This run was terminated on:   6:58: 0  16Dec2024            

=------------------------------------------------------------------------------=
   JOB DONE.
=------------------------------------------------------------------------------=
