
     Program BANDS v.7.0 starts on 16Dec2024 at  6:54:12 

     This program is part of the open-source Quantum ESPRESSO suite
     for quantum simulation of materials; please cite
         "P. Giannozzi et al., J. Phys.:Condens. Matter 21 395502 (2009);
         "P. Giannozzi et al., J. Phys.:Condens. Matter 29 465901 (2017);
         "P. Giannozzi et al., J. Chem. Phys. 152 154105 (2020);
          URL http://www.quantum-espresso.org", 
     in publications or presentations arising from this work. More details at
     http://www.quantum-espresso.org/quote

     Parallel version (MPI & OpenMP), running on       2 processor cores
     Number of MPI processes:                 1
     Threads/MPI process:                     2

     MPI processes distributed on     1 nodes
     144 MiB available memory on the printing compute node when the environment starts


     Reading xml data from directory:

     ./outputs/gaalas25.save/
     file Ga.pbe-dn-kjpaw_psl.1.0.0.UPF: wavefunction(s)  4S renormalized
     file Al.pbe-n-kjpaw_psl.1.0.0.UPF: wavefunction(s)  3S 3P renormalized

     IMPORTANT: XC functional enforced from input :
     Exchange-correlation= PBE
                           (   1   4   3   4   0   0   0)
     Any further DFT definition will be discarded
     Please, verify this is what you really want


     G-vector sticks info
     --------------------
     sticks:   dense  smooth     PW     G-vecs:    dense   smooth      PW
     Sum        1489    1489    437                43819    43819    6979

     Using Slab Decomposition


     Check: negative core charge=   -0.000002
     Reading collected, re-writing distributed wavefunctions
     high-symmetry point:  0.0000 0.0000 0.0000   x coordinate   0.0000
     high-symmetry point:  0.5000 0.0000 0.5000   x coordinate   0.7071
     high-symmetry point:  0.5000 0.2500 0.7500   x coordinate   1.0607
     high-symmetry point:  0.3750 0.3750 0.7400   x coordinate   1.2377
     high-symmetry point:  0.0000 0.0000 0.0000   x coordinate   1.2377

     Plottable bands (eV) written to file gaalasbands25.dat.gnu
     Bands written to file gaalasbands25.dat

 **************************************************************************

                    xk=(   0.00000,   0.00000,   0.00000  )

     point group T_d (-43m) 
     there are  5 classes
     the character table:

       E     8C3   3C2   6S4   6s_d 
A_1    1.00  1.00  1.00  1.00  1.00
A_2    1.00  1.00  1.00 -1.00 -1.00
E      2.00 -1.00  2.00  0.00  0.00
T_1    3.00  0.00 -1.00  1.00 -1.00
T_2    3.00  0.00 -1.00 -1.00  1.00

     the symmetry operations in each class and the name of the first element:

     E        1
                                                                 
     8C3      5    7    8    6   12    9   10   11
                                                                 
     3C2      2    3    4
                                                                 
     6S4     15   16   20   19   23   24
                                                                 
     6s_d    13   14   17   18   21   22
                                                                 

     Band symmetry, T_d (-43m)  point group:

     e(  1 -  3) =     -8.87589  eV     3   --> T_2  G_15 P_4  
     e(  4 -  6) =     -8.79613  eV     3   --> T_2  G_15 P_4  
     e(  7 -  9) =     -8.76875  eV     3   --> T_1  G_25 P_5  
     e( 10 - 10) =     -8.76228  eV     1   --> A_1  G_1  P_1  
     e( 11 - 12) =     -8.75455  eV     2   --> E    G_12 P_3  
     e( 13 - 14) =     -8.73630  eV     2   --> E    G_12 P_3  
     e( 15 - 15) =     -8.73154  eV     1   --> A_2  G_2  P_2  
     e( 16 - 16) =     -6.49490  eV     1   --> A_1  G_1  P_1  
     e( 17 - 19) =     -4.31012  eV     3   --> T_2  G_15 P_4  
     e( 20 - 21) =     -0.80897  eV     2   --> E    G_12 P_3  
     e( 22 - 22) =     -0.06677  eV     1   --> A_1  G_1  P_1  
     e( 23 - 25) =      3.30209  eV     3   --> T_1  G_25 P_5  
     e( 26 - 28) =      3.30854  eV     3   --> T_2  G_15 P_4  
     e( 29 - 31) =      5.73282  eV     3   --> T_2  G_15 P_4  
     e( 32 - 32) =      6.20118  eV     1   --> A_1  G_1  P_1  
     e( 33 - 35) =      7.28972  eV     3   --> T_2  G_15 P_4  
     e( 36 - 37) =      7.32181  eV     2   --> E    G_12 P_3  
     e( 38 - 38) =      8.09737  eV     1   --> A_1  G_1  P_1  
     e( 39 - 41) =      9.54034  eV     3   --> T_2  G_15 P_4  
     e( 42 - 42) =     13.47921  eV     1   --> A_1  G_1  P_1  
     e( 43 - 44) =     15.54360  eV     2   --> E    G_12 P_3  
     e( 45 - 47) =     15.56457  eV     3   --> T_2  G_15 P_4  
     e( 48 - 50) =     15.64892  eV     3   --> T_1  G_25 P_5  
     e( 51 - 52) =     16.34884  eV     2   --> E    G_12 P_3  
     e( 53 - 53) =     16.69241  eV     1   --> A_1  G_1  P_1  
     e( 54 - 56) =     17.16351  eV     3   --> T_2  G_15 P_4  
     e( 57 - 59) =     18.38116  eV     3   --> T_2  G_15 P_4  
     e( 60 - 62) =     18.86265  eV     3   --> T_2  G_15 P_4  
     e( 63 - 64) =     19.11454  eV     2   -->   ?

 **************************************************************************

 **************************************************************************

                    xk=(   0.02500,   0.00000,   0.02500  )

     point group C_s (m)    
     there are  2 classes
     the character table:

       E     s    
A'     1.00  1.00
A''    1.00 -1.00

     the symmetry operations in each class and the name of the first element:

     E        1
                                                                 
     s        2
                                                                 

     Band symmetry, C_s (m)     point group:

     e(  1 -  3) =     -8.87586  eV     3   -->   2 A'             
     e(  1 -  3) =     -8.87586  eV     3   --> A''            
     e(  4 -  4) =     -8.79642  eV     1   --> A'             
     e(  5 -  6) =     -8.79616  eV     2   --> A'             
     e(  5 -  6) =     -8.79616  eV     2   --> A''            
     e(  7 -  9) =     -8.76890  eV     3   --> A'             
     e(  7 -  9) =     -8.76890  eV     3   -->   2 A''            
     e( 10 - 10) =     -8.76220  eV     1   --> A'             
     e( 11 - 12) =     -8.75457  eV     2   --> A'             
     e( 11 - 12) =     -8.75457  eV     2   --> A''            
     e( 13 - 14) =     -8.73641  eV     2   --> A'             
     e( 13 - 14) =     -8.73641  eV     2   --> A''            
     e( 15 - 15) =     -8.73160  eV     1   --> A''            
     e( 16 - 16) =     -6.49051  eV     1   --> A'             
     e( 17 - 17) =     -4.31679  eV     1   --> A''            
     e( 18 - 18) =     -4.31560  eV     1   --> A'             
     e( 19 - 19) =     -4.30964  eV     1   --> A'             
     e( 20 - 20) =     -0.80416  eV     1   --> A'             
     e( 21 - 21) =     -0.79842  eV     1   --> A''            
     e( 22 - 22) =     -0.06009  eV     1   --> A'             
     e( 23 - 23) =      3.27875  eV     1   --> A'             
     e( 24 - 24) =      3.29857  eV     1   --> A''            
     e( 25 - 25) =      3.30086  eV     1   --> A''            
     e( 26 - 26) =      3.30141  eV     1   --> A'             
     e( 27 - 27) =      3.30724  eV     1   --> A'             
     e( 28 - 28) =      3.31122  eV     1   --> A''            
     e( 29 - 29) =      5.57678  eV     1   --> A'             
     e( 30 - 30) =      5.71657  eV     1   --> A'             
     e( 31 - 31) =      5.72967  eV     1   --> A''            
     e( 32 - 32) =      6.34124  eV     1   --> A'             
     e( 33 - 33) =      7.27654  eV     1   --> A''            
     e( 34 - 34) =      7.29101  eV     1   --> A'             
     e( 35 - 35) =      7.31039  eV     1   --> A'             
     e( 36 - 36) =      7.35962  eV     1   --> A'             
     e( 37 - 37) =      7.36467  eV     1   --> A''            
     e( 38 - 38) =      8.11588  eV     1   --> A'             
     e( 39 - 39) =      9.53914  eV     1   --> A'             
     e( 40 - 40) =      9.54455  eV     1   --> A''            
     e( 41 - 41) =      9.56091  eV     1   --> A'             
     e( 42 - 42) =     13.50685  eV     1   --> A'             
     e( 43 - 43) =     15.45268  eV     1   --> A''            
     e( 44 - 44) =     15.48161  eV     1   --> A'             
     e( 45 - 45) =     15.51719  eV     1   --> A'             
     e( 46 - 46) =     15.52795  eV     1   --> A'             
     e( 47 - 47) =     15.53306  eV     1   --> A''            
     e( 48 - 48) =     15.60294  eV     1   --> A''            
     e( 49 - 49) =     15.61995  eV     1   --> A''            
     e( 50 - 50) =     15.62841  eV     1   --> A'             
     e( 51 - 51) =     16.33102  eV     1   --> A''            
     e( 52 - 52) =     16.35112  eV     1   --> A'             
     e( 53 - 53) =     16.62147  eV     1   --> A'             
     e( 54 - 54) =     17.17246  eV     1   --> A'             
     e( 55 - 55) =     17.18123  eV     1   --> A'             
     e( 56 - 56) =     17.22913  eV     1   --> A''            
     e( 57 - 57) =     18.32918  eV     1   --> A'             
     e( 58 - 58) =     18.35172  eV     1   --> A''            
     e( 59 - 59) =     18.38136  eV     1   --> A'             
     e( 60 - 60) =     18.79523  eV     1   --> A''            
     e( 61 - 61) =     18.87189  eV     1   --> A'             
     e( 62 - 62) =     18.90954  eV     1   --> A'             
     e( 63 - 63) =     19.03459  eV     1   --> A''            
     e( 64 - 64) =     19.08475  eV     1   --> A''            

 **************************************************************************

 **************************************************************************

                    xk=(   0.05000,   0.00000,   0.05000  )

     Band symmetry, C_s (m)     point group:

     e(  1 -  1) =     -8.87575  eV     1   --> A'             
     e(  2 -  2) =     -8.87556  eV     1   --> A'             
     e(  3 -  3) =     -8.87522  eV     1   --> A''            
     e(  4 -  4) =     -8.79718  eV     1   --> A'             
     e(  5 -  6) =     -8.79616  eV     2   --> A'             
     e(  5 -  6) =     -8.79616  eV     2   --> A''            
     e(  7 -  7) =     -8.76941  eV     1   --> A''            
     e(  8 -  8) =     -8.76918  eV     1   --> A'             
     e(  9 -  9) =     -8.76902  eV     1   --> A''            
     e( 10 - 10) =     -8.76197  eV     1   --> A'             
     e( 11 - 11) =     -8.75449  eV     1   --> A''            
     e( 12 - 12) =     -8.75433  eV     1   --> A'             
     e( 13 - 13) =     -8.73657  eV     1   --> A''            
     e( 14 - 14) =     -8.73642  eV     1   --> A'             
     e( 15 - 15) =     -8.73176  eV     1   --> A''            
     e( 16 - 16) =     -6.47732  eV     1   --> A'             
     e( 17 - 17) =     -4.33634  eV     1   --> A''            
     e( 18 - 18) =     -4.33170  eV     1   --> A'             
     e( 19 - 19) =     -4.30824  eV     1   --> A'             
     e( 20 - 20) =     -0.79014  eV     1   --> A'             
     e( 21 - 21) =     -0.76731  eV     1   --> A''            
     e( 22 - 22) =     -0.04022  eV     1   --> A'             
     e( 23 - 23) =      3.20604  eV     1   --> A'             
     e( 24 - 24) =      3.28763  eV     1   --> A'             
     e( 25 - 25) =      3.29027  eV     1   --> A''            
     e( 26 - 26) =      3.29221  eV     1   --> A''            
     e( 27 - 27) =      3.30305  eV     1   --> A'             
     e( 28 - 28) =      3.32255  eV     1   --> A''            
     e( 29 - 29) =      5.29371  eV     1   --> A'             
     e( 30 - 30) =      5.67181  eV     1   --> A'             
     e( 31 - 31) =      5.72347  eV     1   --> A''            
     e( 32 - 32) =      6.57914  eV     1   --> A'             
     e( 33 - 33) =      7.28325  eV     1   --> A''            
     e( 34 - 34) =      7.30505  eV     1   --> A'             
     e( 35 - 35) =      7.36108  eV     1   --> A'             
     e( 36 - 36) =      7.44797  eV     1   --> A''            
     e( 37 - 37) =      7.47040  eV     1   --> A'             
     e( 38 - 38) =      8.17168  eV     1   --> A'             
     e( 39 - 39) =      9.53712  eV     1   --> A'             
     e( 40 - 40) =      9.55786  eV     1   --> A''            
     e( 41 - 41) =      9.62334  eV     1   --> A'             
     e( 42 - 42) =     13.58807  eV     1   --> A'             
     e( 43 - 43) =     15.28273  eV     1   --> A''            
     e( 44 - 44) =     15.29205  eV     1   --> A'             
     e( 45 - 45) =     15.39343  eV     1   --> A''            
     e( 46 - 46) =     15.39619  eV     1   --> A'             
     e( 47 - 47) =     15.41992  eV     1   --> A'             
     e( 48 - 48) =     15.47377  eV     1   --> A''            
     e( 49 - 49) =     15.53473  eV     1   --> A''            
     e( 50 - 50) =     15.57599  eV     1   --> A'             
     e( 51 - 51) =     16.30432  eV     1   --> A''            
     e( 52 - 52) =     16.33931  eV     1   --> A'             
     e( 53 - 53) =     16.46771  eV     1   --> A'             
     e( 54 - 54) =     17.19361  eV     1   --> A'             
     e( 55 - 55) =     17.21293  eV     1   --> A'             
     e( 56 - 56) =     17.38969  eV     1   --> A''            
     e( 57 - 57) =     18.25131  eV     1   --> A'             
     e( 58 - 58) =     18.28564  eV     1   --> A''            
     e( 59 - 59) =     18.37985  eV     1   --> A'             
     e( 60 - 60) =     18.62966  eV     1   --> A''            
     e( 61 - 61) =     18.90668  eV     1   --> A'             
     e( 62 - 62) =     18.94476  eV     1   --> A'             
     e( 63 - 63) =     18.94892  eV     1   --> A''            
     e( 64 - 64) =     19.14432  eV     1   --> A''            

 **************************************************************************

 **************************************************************************

                    xk=(   0.07500,   0.00000,   0.07500  )

     Band symmetry, C_s (m)     point group:

     e(  1 -  1) =     -8.87555  eV     1   --> A'             
     e(  2 -  2) =     -8.87512  eV     1   --> A'             
     e(  3 -  3) =     -8.87441  eV     1   --> A''            
     e(  4 -  4) =     -8.79840  eV     1   --> A'             
     e(  5 -  6) =     -8.79606  eV     2   --> A'             
     e(  5 -  6) =     -8.79606  eV     2   --> A''            
     e(  7 -  7) =     -8.77015  eV     1   --> A''            
     e(  8 -  8) =     -8.76975  eV     1   --> A'             
     e(  9 -  9) =     -8.76939  eV     1   --> A''            
     e( 10 - 10) =     -8.76158  eV     1   --> A'             
     e( 11 - 11) =     -8.75433  eV     1   --> A''            
     e( 12 - 12) =     -8.75401  eV     1   --> A'             
     e( 13 - 13) =     -8.73679  eV     1   --> A''            
     e( 14 - 14) =     -8.73648  eV     1   --> A'             
     e( 15 - 15) =     -8.73202  eV     1   --> A''            
     e( 16 - 16) =     -6.45539  eV     1   --> A'             
     e( 17 - 17) =     -4.36782  eV     1   --> A''            
     e( 18 - 18) =     -4.35765  eV     1   --> A'             
     e( 19 - 19) =     -4.30623  eV     1   --> A'             
     e( 20 - 20) =     -0.76800  eV     1   --> A'             
     e( 21 - 21) =     -0.71728  eV     1   --> A''            
     e( 22 - 22) =     -0.00755  eV     1   --> A'             
     e( 23 - 23) =      3.09540  eV     1   --> A'             
     e( 24 - 24) =      3.26571  eV     1   --> A'             
     e( 25 - 25) =      3.27346  eV     1   --> A''            
     e( 26 - 26) =      3.28226  eV     1   --> A''            
     e( 27 - 27) =      3.29782  eV     1   --> A'             
     e( 28 - 28) =      3.34244  eV     1   --> A''            
     e( 29 - 29) =      4.98373  eV     1   --> A'             
     e( 30 - 30) =      5.60073  eV     1   --> A'             
     e( 31 - 31) =      5.71359  eV     1   --> A''            
     e( 32 - 32) =      6.81496  eV     1   --> A'             
     e( 33 - 33) =      7.32039  eV     1   --> A''            
     e( 34 - 34) =      7.33311  eV     1   --> A'             
     e( 35 - 35) =      7.43749  eV     1   --> A'             
     e( 36 - 36) =      7.55891  eV     1   --> A''            
     e( 37 - 37) =      7.64371  eV     1   --> A'             
     e( 38 - 38) =      8.26800  eV     1   --> A'             
     e( 39 - 39) =      9.53719  eV     1   --> A'             
     e( 40 - 40) =      9.58020  eV     1   --> A''            
     e( 41 - 41) =      9.72740  eV     1   --> A'             
     e( 42 - 42) =     13.71795  eV     1   --> A'             
     e( 43 - 43) =     14.98740  eV     1   --> A'             
     e( 44 - 44) =     15.07080  eV     1   --> A''            
     e( 45 - 45) =     15.10860  eV     1   --> A''            
     e( 46 - 46) =     15.20220  eV     1   --> A'             
     e( 47 - 47) =     15.29895  eV     1   --> A'             
     e( 48 - 48) =     15.33060  eV     1   --> A''            
     e( 49 - 49) =     15.40074  eV     1   --> A''            
     e( 50 - 50) =     15.49576  eV     1   --> A'             
     e( 51 - 51) =     16.24880  eV     1   --> A'             
     e( 52 - 52) =     16.28097  eV     1   --> A''            
     e( 53 - 53) =     16.33008  eV     1   --> A'             
     e( 54 - 54) =     17.20157  eV     1   --> A'             
     e( 55 - 55) =     17.26700  eV     1   --> A'             
     e( 56 - 56) =     17.54369  eV     1   --> A''            
     e( 57 - 57) =     18.19431  eV     1   --> A'             
     e( 58 - 58) =     18.24904  eV     1   --> A''            
     e( 59 - 59) =     18.40697  eV     1   --> A'             
     e( 60 - 60) =     18.45601  eV     1   --> A''            
     e( 61 - 61) =     18.84133  eV     1   --> A'             
     e( 62 - 62) =     18.89267  eV     1   --> A''            
     e( 63 - 63) =     19.07588  eV     1   --> A'             
     e( 64 - 64) =     19.26341  eV     1   --> A''            

 **************************************************************************

 **************************************************************************

                    xk=(   0.10000,   0.00000,   0.10000  )

     Band symmetry, C_s (m)     point group:

     e(  1 -  1) =     -8.87531  eV     1   --> A'             
     e(  2 -  2) =     -8.87451  eV     1   --> A'             
     e(  3 -  3) =     -8.87330  eV     1   --> A''            
     e(  4 -  4) =     -8.80004  eV     1   --> A'             
     e(  5 -  6) =     -8.79593  eV     2   --> A'             
     e(  5 -  6) =     -8.79593  eV     2   --> A''            
     e(  7 -  7) =     -8.77119  eV     1   --> A''            
     e(  8 -  8) =     -8.77051  eV     1   --> A'             
     e(  9 -  9) =     -8.76988  eV     1   --> A''            
     e( 10 - 10) =     -8.76106  eV     1   --> A'             
     e( 11 - 11) =     -8.75409  eV     1   --> A''            
     e( 12 - 12) =     -8.75361  eV     1   --> A'             
     e( 13 - 13) =     -8.73709  eV     1   --> A''            
     e( 14 - 14) =     -8.73662  eV     1   --> A'             
     e( 15 - 15) =     -8.73238  eV     1   --> A''            
     e( 16 - 16) =     -6.42484  eV     1   --> A'             
     e( 17 - 17) =     -4.40946  eV     1   --> A''            
     e( 18 - 18) =     -4.39232  eV     1   --> A'             
     e( 19 - 19) =     -4.30417  eV     1   --> A'             
     e( 20 - 20) =     -0.73940  eV     1   --> A'             
     e( 21 - 21) =     -0.65099  eV     1   --> A''            
     e( 22 - 22) =      0.03693  eV     1   --> A'             
     e( 23 - 23) =      2.95977  eV     1   --> A'             
     e( 24 - 24) =      3.23574  eV     1   --> A'             
     e( 25 - 25) =      3.24677  eV     1   --> A''            
     e( 26 - 26) =      3.27594  eV     1   --> A''            
     e( 27 - 27) =      3.29435  eV     1   --> A'             
     e( 28 - 28) =      3.37039  eV     1   --> A''            
     e( 29 - 29) =      4.66525  eV     1   --> A'             
     e( 30 - 30) =      5.50304  eV     1   --> A'             
     e( 31 - 31) =      5.69787  eV     1   --> A''            
     e( 32 - 32) =      7.02988  eV     1   --> A'             
     e( 33 - 33) =      7.37186  eV     1   --> A'             
     e( 34 - 34) =      7.38817  eV     1   --> A''            
     e( 35 - 35) =      7.53988  eV     1   --> A'             
     e( 36 - 36) =      7.69422  eV     1   --> A''            
     e( 37 - 37) =      7.85876  eV     1   --> A'             
     e( 38 - 38) =      8.41034  eV     1   --> A'             
     e( 39 - 39) =      9.54261  eV     1   --> A'             
     e( 40 - 40) =      9.61113  eV     1   --> A''            
     e( 41 - 41) =      9.87073  eV     1   --> A'             
     e( 42 - 42) =     13.88826  eV     1   --> A'             
     e( 43 - 43) =     14.60138  eV     1   --> A'             
     e( 44 - 44) =     14.72055  eV     1   --> A''            
     e( 45 - 45) =     14.85240  eV     1   --> A''            
     e( 46 - 46) =     14.97345  eV     1   --> A'             
     e( 47 - 47) =     15.15854  eV     1   --> A'             
     e( 48 - 48) =     15.16238  eV     1   --> A''            
     e( 49 - 49) =     15.23762  eV     1   --> A''            
     e( 50 - 50) =     15.38395  eV     1   --> A'             
     e( 51 - 51) =     16.02887  eV     1   --> A'             
     e( 52 - 52) =     16.24837  eV     1   --> A''            
     e( 53 - 53) =     16.26232  eV     1   --> A'             
     e( 54 - 54) =     17.20205  eV     1   --> A'             
     e( 55 - 55) =     17.34308  eV     1   --> A'             
     e( 56 - 56) =     17.54203  eV     1   --> A''            
     e( 57 - 57) =     18.13432  eV     1   --> A'             
     e( 58 - 58) =     18.28477  eV     1   --> A''            
     e( 59 - 59) =     18.37934  eV     1   --> A''            
     e( 60 - 60) =     18.50051  eV     1   --> A'             
     e( 61 - 61) =     18.76984  eV     1   --> A'             
     e( 62 - 62) =     18.86400  eV     1   --> A''            
     e( 63 - 63) =     19.23746  eV     1   --> A'             
     e( 64 - 64) =     19.41324  eV     1   --> A''            

 **************************************************************************

 **************************************************************************

                    xk=(   0.12500,   0.00000,   0.12500  )

     Band symmetry, C_s (m)     point group:

     e(  1 -  1) =     -8.87494  eV     1   --> A'             
     e(  2 -  2) =     -8.87374  eV     1   --> A'             
     e(  3 -  3) =     -8.87180  eV     1   --> A''            
     e(  4 -  4) =     -8.80208  eV     1   --> A'             
     e(  5 -  5) =     -8.79579  eV     1   --> A'             
     e(  6 -  6) =     -8.79561  eV     1   --> A''            
     e(  7 -  7) =     -8.77249  eV     1   --> A''            
     e(  8 -  8) =     -8.77140  eV     1   --> A'             
     e(  9 -  9) =     -8.77045  eV     1   --> A''            
     e( 10 - 10) =     -8.76037  eV     1   --> A'             
     e( 11 - 11) =     -8.75377  eV     1   --> A''            
     e( 12 - 12) =     -8.75307  eV     1   --> A'             
     e( 13 - 13) =     -8.73746  eV     1   --> A''            
     e( 14 - 14) =     -8.73676  eV     1   --> A'             
     e( 15 - 15) =     -8.73283  eV     1   --> A''            
     e( 16 - 16) =     -6.38582  eV     1   --> A'             
     e( 17 - 17) =     -4.45890  eV     1   --> A''            
     e( 18 - 18) =     -4.43378  eV     1   --> A'             
     e( 19 - 19) =     -4.30277  eV     1   --> A'             
     e( 20 - 20) =     -0.70597  eV     1   --> A'             
     e( 21 - 21) =     -0.57169  eV     1   --> A''            
     e( 22 - 22) =      0.09196  eV     1   --> A'             
     e( 23 - 23) =      2.81155  eV     1   --> A'             
     e( 24 - 24) =      3.19846  eV     1   --> A'             
     e( 25 - 25) =      3.21208  eV     1   --> A''            
     e( 26 - 26) =      3.27602  eV     1   --> A''            
     e( 27 - 27) =      3.29611  eV     1   --> A'             
     e( 28 - 28) =      3.40621  eV     1   --> A''            
     e( 29 - 29) =      4.34493  eV     1   --> A'             
     e( 30 - 30) =      5.38054  eV     1   --> A'             
     e( 31 - 31) =      5.67901  eV     1   --> A''            
     e( 32 - 32) =      7.22092  eV     1   --> A'             
     e( 33 - 33) =      7.42016  eV     1   --> A'             
     e( 34 - 34) =      7.48680  eV     1   --> A''            
     e( 35 - 35) =      7.66735  eV     1   --> A'             
     e( 36 - 36) =      7.85216  eV     1   --> A''            
     e( 37 - 37) =      8.09224  eV     1   --> A'             
     e( 38 - 38) =      8.61001  eV     1   --> A'             
     e( 39 - 39) =      9.55699  eV     1   --> A'             
     e( 40 - 40) =      9.65137  eV     1   --> A''            
     e( 41 - 41) =     10.04835  eV     1   --> A'             
     e( 42 - 42) =     14.06377  eV     1   --> A'             
     e( 43 - 43) =     14.19347  eV     1   --> A'             
     e( 44 - 44) =     14.28891  eV     1   --> A''            
     e( 45 - 45) =     14.62717  eV     1   --> A''            
     e( 46 - 46) =     14.73107  eV     1   --> A'             
     e( 47 - 47) =     14.96431  eV     1   --> A''            
     e( 48 - 48) =     15.00835  eV     1   --> A'             
     e( 49 - 49) =     15.06700  eV     1   --> A''            
     e( 50 - 50) =     15.25934  eV     1   --> A'             
     e( 51 - 51) =     15.77019  eV     1   --> A'             
     e( 52 - 52) =     16.18308  eV     1   --> A'             
     e( 53 - 53) =     16.19537  eV     1   --> A''            
     e( 54 - 54) =     17.20974  eV     1   --> A'             
     e( 55 - 55) =     17.38173  eV     1   --> A''            
     e( 56 - 56) =     17.43689  eV     1   --> A'             
     e( 57 - 57) =     18.05915  eV     1   --> A'             
     e( 58 - 58) =     18.15097  eV     1   --> A''            
     e( 59 - 59) =     18.61500  eV     1   --> A''            
     e( 60 - 60) =     18.64649  eV     1   --> A'             
     e( 61 - 61) =     18.73431  eV     1   --> A'             
     e( 62 - 62) =     18.89413  eV     1   --> A''            
     e( 63 - 63) =     19.41173  eV     1   --> A'             
     e( 64 - 64) =     19.58170  eV     1   --> A''            

 **************************************************************************

 **************************************************************************

                    xk=(   0.15000,   0.00000,   0.15000  )

     Band symmetry, C_s (m)     point group:

     e(  1 -  1) =     -8.87452  eV     1   --> A'             
     e(  2 -  2) =     -8.87275  eV     1   --> A'             
     e(  3 -  3) =     -8.87007  eV     1   --> A''            
     e(  4 -  4) =     -8.80435  eV     1   --> A'             
     e(  5 -  5) =     -8.79553  eV     1   --> A'             
     e(  6 -  6) =     -8.79533  eV     1   --> A''            
     e(  7 -  7) =     -8.77402  eV     1   --> A''            
     e(  8 -  8) =     -8.77232  eV     1   --> A'             
     e(  9 -  9) =     -8.77112  eV     1   --> A''            
     e( 10 - 10) =     -8.75954  eV     1   --> A'             
     e( 11 - 11) =     -8.75340  eV     1   --> A''            
     e( 12 - 12) =     -8.75240  eV     1   --> A'             
     e( 13 - 13) =     -8.73791  eV     1   --> A''            
     e( 14 - 14) =     -8.73691  eV     1   --> A'             
     e( 15 - 15) =     -8.73332  eV     1   --> A''            
     e( 16 - 16) =     -6.33852  eV     1   --> A'             
     e( 17 - 17) =     -4.51437  eV     1   --> A''            
     e( 18 - 18) =     -4.48063  eV     1   --> A'             
     e( 19 - 19) =     -4.30268  eV     1   --> A'             
     e( 20 - 20) =     -0.66928  eV     1   --> A'             
     e( 21 - 21) =     -0.48318  eV     1   --> A''            
     e( 22 - 22) =      0.15530  eV     1   --> A'             
     e( 23 - 23) =      2.66171  eV     1   --> A'             
     e( 24 - 24) =      3.15516  eV     1   --> A'             
     e( 25 - 25) =      3.17067  eV     1   --> A''            
     e( 26 - 26) =      3.28583  eV     1   --> A''            
     e( 27 - 27) =      3.30635  eV     1   --> A'             
     e( 28 - 28) =      3.44968  eV     1   --> A''            
     e( 29 - 29) =      4.02816  eV     1   --> A'             
     e( 30 - 30) =      5.23934  eV     1   --> A'             
     e( 31 - 31) =      5.65497  eV     1   --> A''            
     e( 32 - 32) =      7.38932  eV     1   --> A'             
     e( 33 - 33) =      7.48105  eV     1   --> A'             
     e( 34 - 34) =      7.61277  eV     1   --> A''            
     e( 35 - 35) =      7.81463  eV     1   --> A'             
     e( 36 - 36) =      8.02883  eV     1   --> A''            
     e( 37 - 37) =      8.32273  eV     1   --> A'             
     e( 38 - 38) =      8.87453  eV     1   --> A'             
     e( 39 - 39) =      9.58521  eV     1   --> A'             
     e( 40 - 40) =      9.70055  eV     1   --> A''            
     e( 41 - 41) =     10.25303  eV     1   --> A'             
     e( 42 - 42) =     13.69542  eV     1   --> A'             
     e( 43 - 43) =     13.83134  eV     1   --> A''            
     e( 44 - 44) =     14.31339  eV     1   --> A'             
     e( 45 - 45) =     14.40674  eV     1   --> A''            
     e( 46 - 46) =     14.49987  eV     1   --> A'             
     e( 47 - 47) =     14.74391  eV     1   --> A''            
     e( 48 - 48) =     14.84980  eV     1   --> A'             
     e( 49 - 49) =     14.89340  eV     1   --> A''            
     e( 50 - 50) =     15.12749  eV     1   --> A'             
     e( 51 - 51) =     15.50391  eV     1   --> A'             
     e( 52 - 52) =     16.08526  eV     1   --> A'             
     e( 53 - 53) =     16.11460  eV     1   --> A''            
     e( 54 - 54) =     17.15353  eV     1   --> A''            
     e( 55 - 55) =     17.23111  eV     1   --> A'             
     e( 56 - 56) =     17.54431  eV     1   --> A'             
     e( 57 - 57) =     17.97871  eV     1   --> A'             
     e( 58 - 58) =     18.01704  eV     1   --> A''            
     e( 59 - 59) =     18.70599  eV     1   --> A'             
     e( 60 - 60) =     18.75488  eV     1   --> A''            
     e( 61 - 61) =     18.85873  eV     1   --> A'             
     e( 62 - 62) =     19.11401  eV     1   --> A''            
     e( 63 - 63) =     19.58866  eV     1   --> A'             
     e( 64 - 64) =     19.75562  eV     1   --> A''            

 **************************************************************************

 **************************************************************************

                    xk=(   0.17500,   0.00000,   0.17500  )

     Band symmetry, C_s (m)     point group:

     e(  1 -  1) =     -8.87408  eV     1   --> A'             
     e(  2 -  2) =     -8.87165  eV     1   --> A'             
     e(  3 -  3) =     -8.86811  eV     1   --> A''            
     e(  4 -  4) =     -8.80693  eV     1   --> A'             
     e(  5 -  5) =     -8.79527  eV     1   --> A'             
     e(  6 -  6) =     -8.79503  eV     1   --> A''            
     e(  7 -  7) =     -8.77573  eV     1   --> A''            
     e(  8 -  8) =     -8.77342  eV     1   --> A'             
     e(  9 -  9) =     -8.77194  eV     1   --> A''            
     e( 10 - 10) =     -8.75862  eV     1   --> A'             
     e( 11 - 11) =     -8.75300  eV     1   --> A''            
     e( 12 - 12) =     -8.75168  eV     1   --> A'             
     e( 13 - 13) =     -8.73842  eV     1   --> A''            
     e( 14 - 14) =     -8.73710  eV     1   --> A'             
     e( 15 - 15) =     -8.73389  eV     1   --> A''            
     e( 16 - 16) =     -6.28317  eV     1   --> A'             
     e( 17 - 17) =     -4.57369  eV     1   --> A''            
     e( 18 - 18) =     -4.53124  eV     1   --> A'             
     e( 19 - 19) =     -4.30534  eV     1   --> A'             
     e( 20 - 20) =     -0.63068  eV     1   --> A'             
     e( 21 - 21) =     -0.38939  eV     1   --> A''            
     e( 22 - 22) =      0.22396  eV     1   --> A'             
     e( 23 - 23) =      2.51846  eV     1   --> A'             
     e( 24 - 24) =      3.10684  eV     1   --> A'             
     e( 25 - 25) =      3.12408  eV     1   --> A''            
     e( 26 - 26) =      3.30868  eV     1   --> A''            
     e( 27 - 27) =      3.32736  eV     1   --> A'             
     e( 28 - 28) =      3.50047  eV     1   --> A''            
     e( 29 - 29) =      3.71722  eV     1   --> A'             
     e( 30 - 30) =      5.07895  eV     1   --> A'             
     e( 31 - 31) =      5.62473  eV     1   --> A''            
     e( 32 - 32) =      7.51309  eV     1   --> A'             
     e( 33 - 33) =      7.57723  eV     1   --> A'             
     e( 34 - 34) =      7.76433  eV     1   --> A''            
     e( 35 - 35) =      7.97699  eV     1   --> A'             
     e( 36 - 36) =      8.22130  eV     1   --> A''            
     e( 37 - 37) =      8.54188  eV     1   --> A'             
     e( 38 - 38) =      9.19356  eV     1   --> A'             
     e( 39 - 39) =      9.63194  eV     1   --> A'             
     e( 40 - 40) =      9.75864  eV     1   --> A''            
     e( 41 - 41) =     10.47192  eV     1   --> A'             
     e( 42 - 42) =     13.22969  eV     1   --> A'             
     e( 43 - 43) =     13.36407  eV     1   --> A''            
     e( 44 - 44) =     14.19296  eV     1   --> A''            
     e( 45 - 45) =     14.21793  eV     1   --> A'             
     e( 46 - 46) =     14.51479  eV     1   --> A''            
     e( 47 - 47) =     14.56454  eV     1   --> A'             
     e( 48 - 48) =     14.69600  eV     1   --> A'             
     e( 49 - 49) =     14.71368  eV     1   --> A''            
     e( 50 - 50) =     14.98746  eV     1   --> A'             
     e( 51 - 51) =     15.25577  eV     1   --> A'             
     e( 52 - 52) =     15.96783  eV     1   --> A'             
     e( 53 - 53) =     16.00588  eV     1   --> A''            
     e( 54 - 54) =     16.89979  eV     1   --> A''            
     e( 55 - 55) =     17.26166  eV     1   --> A'             
     e( 56 - 56) =     17.62174  eV     1   --> A'             
     e( 57 - 57) =     17.87975  eV     1   --> A''            
     e( 58 - 58) =     17.93504  eV     1   --> A'             
     e( 59 - 59) =     18.73048  eV     1   --> A'             
     e( 60 - 60) =     18.79164  eV     1   --> A''            
     e( 61 - 61) =     19.06097  eV     1   --> A'             
     e( 62 - 62) =     19.46677  eV     1   --> A''            
     e( 63 - 63) =     19.74632  eV     1   --> A'             
     e( 64 - 64) =     19.91972  eV     1   --> A''            

 **************************************************************************

 **************************************************************************

                    xk=(   0.20000,   0.00000,   0.20000  )

     Band symmetry, C_s (m)     point group:

     e(  1 -  1) =     -8.87362  eV     1   --> A'             
     e(  2 -  2) =     -8.87049  eV     1   --> A'             
     e(  3 -  3) =     -8.86597  eV     1   --> A''            
     e(  4 -  4) =     -8.80964  eV     1   --> A'             
     e(  5 -  5) =     -8.79497  eV     1   --> A'             
     e(  6 -  6) =     -8.79471  eV     1   --> A''            
     e(  7 -  7) =     -8.77755  eV     1   --> A''            
     e(  8 -  8) =     -8.77468  eV     1   --> A'             
     e(  9 -  9) =     -8.77294  eV     1   --> A''            
     e( 10 - 10) =     -8.75763  eV     1   --> A'             
     e( 11 - 11) =     -8.75248  eV     1   --> A''            
     e( 12 - 12) =     -8.75091  eV     1   --> A'             
     e( 13 - 13) =     -8.73892  eV     1   --> A''            
     e( 14 - 14) =     -8.73733  eV     1   --> A'             
     e( 15 - 15) =     -8.73454  eV     1   --> A''            
     e( 16 - 16) =     -6.22001  eV     1   --> A'             
     e( 17 - 17) =     -4.63496  eV     1   --> A''            
     e( 18 - 18) =     -4.58396  eV     1   --> A'             
     e( 19 - 19) =     -4.31217  eV     1   --> A'             
     e( 20 - 20) =     -0.59087  eV     1   --> A'             
     e( 21 - 21) =     -0.29415  eV     1   --> A''            
     e( 22 - 22) =      0.29475  eV     1   --> A'             
     e( 23 - 23) =      2.38873  eV     1   --> A'             
     e( 24 - 24) =      3.05439  eV     1   --> A'             
     e( 25 - 25) =      3.07421  eV     1   --> A''            
     e( 26 - 26) =      3.34450  eV     1   --> A'             
     e( 27 - 27) =      3.34751  eV     1   --> A''            
     e( 28 - 28) =      3.43459  eV     1   --> A'             
     e( 29 - 29) =      3.55819  eV     1   --> A''            
     e( 30 - 30) =      4.90376  eV     1   --> A'             
     e( 31 - 31) =      5.58887  eV     1   --> A''            
     e( 32 - 32) =      7.58983  eV     1   --> A'             
     e( 33 - 33) =      7.71403  eV     1   --> A'             
     e( 34 - 34) =      7.93903  eV     1   --> A''            
     e( 35 - 35) =      8.15416  eV     1   --> A'             
     e( 36 - 36) =      8.42698  eV     1   --> A''            
     e( 37 - 37) =      8.75629  eV     1   --> A'             
     e( 38 - 38) =      9.52273  eV     1   --> A'             
     e( 39 - 39) =      9.72552  eV     1   --> A'             
     e( 40 - 40) =      9.82589  eV     1   --> A''            
     e( 41 - 41) =     10.69146  eV     1   --> A'             
     e( 42 - 42) =     12.76392  eV     1   --> A'             
     e( 43 - 43) =     12.89900  eV     1   --> A''            
     e( 44 - 44) =     13.98353  eV     1   --> A'             
     e( 45 - 45) =     13.98926  eV     1   --> A''            
     e( 46 - 46) =     14.29552  eV     1   --> A''            
     e( 47 - 47) =     14.47141  eV     1   --> A'             
     e( 48 - 48) =     14.52616  eV     1   --> A''            
     e( 49 - 49) =     14.78406  eV     1   --> A'             
     e( 50 - 50) =     14.81369  eV     1   --> A'             
     e( 51 - 51) =     15.12803  eV     1   --> A'             
     e( 52 - 52) =     15.83673  eV     1   --> A'             
     e( 53 - 53) =     15.87312  eV     1   --> A''            
     e( 54 - 54) =     16.63538  eV     1   --> A''            
     e( 55 - 55) =     17.29155  eV     1   --> A'             
     e( 56 - 56) =     17.59688  eV     1   --> A'             
     e( 57 - 57) =     17.73391  eV     1   --> A''            
     e( 58 - 58) =     18.02356  eV     1   --> A'             
     e( 59 - 59) =     18.76996  eV     1   --> A'             
     e( 60 - 60) =     18.80675  eV     1   --> A''            
     e( 61 - 61) =     19.26535  eV     1   --> A'             
     e( 62 - 62) =     19.77825  eV     1   --> A''            
     e( 63 - 63) =     19.86114  eV     1   --> A'             
     e( 64 - 64) =     20.11258  eV     1   --> A''            

 **************************************************************************

 **************************************************************************

                    xk=(   0.22500,   0.00000,   0.22500  )

     Band symmetry, C_s (m)     point group:

     e(  1 -  1) =     -8.87326  eV     1   --> A'             
     e(  2 -  2) =     -8.86909  eV     1   --> A'             
     e(  3 -  3) =     -8.86378  eV     1   --> A''            
     e(  4 -  4) =     -8.81261  eV     1   --> A'             
     e(  5 -  5) =     -8.79471  eV     1   --> A'             
     e(  6 -  6) =     -8.79436  eV     1   --> A''            
     e(  7 -  7) =     -8.77952  eV     1   --> A''            
     e(  8 -  8) =     -8.77592  eV     1   --> A'             
     e(  9 -  9) =     -8.77395  eV     1   --> A''            
     e( 10 - 10) =     -8.75656  eV     1   --> A'             
     e( 11 - 11) =     -8.75197  eV     1   --> A''            
     e( 12 - 12) =     -8.75007  eV     1   --> A'             
     e( 13 - 13) =     -8.73944  eV     1   --> A''            
     e( 14 - 14) =     -8.73763  eV     1   --> A'             
     e( 15 - 15) =     -8.73520  eV     1   --> A''            
     e( 16 - 16) =     -6.14952  eV     1   --> A'             
     e( 17 - 17) =     -4.69657  eV     1   --> A''            
     e( 18 - 18) =     -4.63743  eV     1   --> A'             
     e( 19 - 19) =     -4.32382  eV     1   --> A'             
     e( 20 - 20) =     -0.54988  eV     1   --> A'             
     e( 21 - 21) =     -0.20130  eV     1   --> A''            
     e( 22 - 22) =      0.36410  eV     1   --> A'             
     e( 23 - 23) =      2.27835  eV     1   --> A'             
     e( 24 - 24) =      2.99216  eV     1   --> A'             
     e( 25 - 25) =      3.02191  eV     1   --> A''            
     e( 26 - 26) =      3.11492  eV     1   --> A'             
     e( 27 - 27) =      3.40478  eV     1   --> A''            
     e( 28 - 28) =      3.43054  eV     1   --> A'             
     e( 29 - 29) =      3.62343  eV     1   --> A''            
     e( 30 - 30) =      4.71667  eV     1   --> A'             
     e( 31 - 31) =      5.54573  eV     1   --> A''            
     e( 32 - 32) =      7.66493  eV     1   --> A'             
     e( 33 - 33) =      7.84693  eV     1   --> A'             
     e( 34 - 34) =      8.13316  eV     1   --> A''            
     e( 35 - 35) =      8.34561  eV     1   --> A'             
     e( 36 - 36) =      8.64023  eV     1   --> A''            
     e( 37 - 37) =      8.97002  eV     1   --> A'             
     e( 38 - 38) =      9.70063  eV     1   --> A'             
     e( 39 - 39) =      9.90197  eV     1   --> A''            
     e( 40 - 40) =     10.01309  eV     1   --> A'             
     e( 41 - 41) =     10.89356  eV     1   --> A'             
     e( 42 - 42) =     12.30661  eV     1   --> A'             
     e( 43 - 43) =     12.43957  eV     1   --> A''            
     e( 44 - 44) =     13.75855  eV     1   --> A'             
     e( 45 - 45) =     13.77694  eV     1   --> A''            
     e( 46 - 46) =     14.09968  eV     1   --> A''            
     e( 47 - 47) =     14.25525  eV     1   --> A'             
     e( 48 - 48) =     14.33011  eV     1   --> A''            
     e( 49 - 49) =     14.57526  eV     1   --> A'             
     e( 50 - 50) =     14.85938  eV     1   --> A'             
     e( 51 - 51) =     15.23450  eV     1   --> A'             
     e( 52 - 52) =     15.70367  eV     1   --> A'             
     e( 53 - 53) =     15.71505  eV     1   --> A''            
     e( 54 - 54) =     16.38148  eV     1   --> A''            
     e( 55 - 55) =     17.26786  eV     1   --> A'             
     e( 56 - 56) =     17.55556  eV     1   --> A'             
     e( 57 - 57) =     17.58106  eV     1   --> A''            
     e( 58 - 58) =     18.20974  eV     1   --> A'             
     e( 59 - 59) =     18.80132  eV     1   --> A''            
     e( 60 - 60) =     18.81263  eV     1   --> A'             
     e( 61 - 61) =     19.45820  eV     1   --> A'             
     e( 62 - 62) =     19.85795  eV     1   --> A''            
     e( 63 - 63) =     19.90218  eV     1   --> A'             
     e( 64 - 64) =     20.44726  eV     1   --> A''            

 **************************************************************************

 **************************************************************************

                    xk=(   0.25000,   0.00000,   0.25000  )

     Band symmetry, C_s (m)     point group:

     e(  1 -  1) =     -8.87301  eV     1   --> A'             
     e(  2 -  2) =     -8.86764  eV     1   --> A'             
     e(  3 -  3) =     -8.86156  eV     1   --> A''            
     e(  4 -  4) =     -8.81573  eV     1   --> A'             
     e(  5 -  5) =     -8.79444  eV     1   --> A'             
     e(  6 -  6) =     -8.79404  eV     1   --> A''            
     e(  7 -  7) =     -8.78152  eV     1   --> A''            
     e(  8 -  8) =     -8.77730  eV     1   --> A'             
     e(  9 -  9) =     -8.77516  eV     1   --> A''            
     e( 10 - 10) =     -8.75548  eV     1   --> A'             
     e( 11 - 11) =     -8.75145  eV     1   --> A''            
     e( 12 - 12) =     -8.74923  eV     1   --> A'             
     e( 13 - 13) =     -8.74001  eV     1   --> A''            
     e( 14 - 14) =     -8.73798  eV     1   --> A'             
     e( 15 - 15) =     -8.73594  eV     1   --> A''            
     e( 16 - 16) =     -6.07205  eV     1   --> A'             
     e( 17 - 17) =     -4.75705  eV     1   --> A''            
     e( 18 - 18) =     -4.69043  eV     1   --> A'             
     e( 19 - 19) =     -4.34233  eV     1   --> A'             
     e( 20 - 20) =     -0.50741  eV     1   --> A'             
     e( 21 - 21) =     -0.11388  eV     1   --> A''            
     e( 22 - 22) =      0.42861  eV     1   --> A'             
     e( 23 - 23) =      2.19056  eV     1   --> A'             
     e( 24 - 24) =      2.80206  eV     1   --> A'             
     e( 25 - 25) =      2.96566  eV     1   --> A'             
     e( 26 - 26) =      2.96947  eV     1   --> A''            
     e( 27 - 27) =      3.48172  eV     1   --> A''            
     e( 28 - 28) =      3.50276  eV     1   --> A'             
     e( 29 - 29) =      3.69469  eV     1   --> A''            
     e( 30 - 30) =      4.52150  eV     1   --> A'             
     e( 31 - 31) =      5.49496  eV     1   --> A''            
     e( 32 - 32) =      7.74119  eV     1   --> A'             
     e( 33 - 33) =      7.96840  eV     1   --> A'             
     e( 34 - 34) =      8.34291  eV     1   --> A''            
     e( 35 - 35) =      8.55288  eV     1   --> A'             
     e( 36 - 36) =      8.85688  eV     1   --> A''            
     e( 37 - 37) =      9.18269  eV     1   --> A'             
     e( 38 - 38) =      9.79873  eV     1   --> A'             
     e( 39 - 39) =      9.98688  eV     1   --> A''            
     e( 40 - 40) =     10.40721  eV     1   --> A'             
     e( 41 - 41) =     11.06336  eV     1   --> A'             
     e( 42 - 42) =     11.86796  eV     1   --> A'             
     e( 43 - 43) =     12.00000  eV     1   --> A''            
     e( 44 - 44) =     13.55214  eV     1   --> A'             
     e( 45 - 45) =     13.55297  eV     1   --> A''            
     e( 46 - 46) =     13.93468  eV     1   --> A''            
     e( 47 - 47) =     14.00455  eV     1   --> A'             
     e( 48 - 48) =     14.12202  eV     1   --> A''            
     e( 49 - 49) =     14.33809  eV     1   --> A'             
     e( 50 - 50) =     14.89066  eV     1   --> A'             
     e( 51 - 51) =     15.39281  eV     1   --> A'             
     e( 52 - 52) =     15.53707  eV     1   --> A''            
     e( 53 - 53) =     15.62907  eV     1   --> A'             
     e( 54 - 54) =     16.12720  eV     1   --> A''            
     e( 55 - 55) =     17.14679  eV     1   --> A'             
     e( 56 - 56) =     17.40992  eV     1   --> A''            
     e( 57 - 57) =     17.59114  eV     1   --> A'             
     e( 58 - 58) =     18.44788  eV     1   --> A'             
     e( 59 - 59) =     18.76765  eV     1   --> A''            
     e( 60 - 60) =     18.84694  eV     1   --> A'             
     e( 61 - 61) =     19.62279  eV     1   --> A'             
     e( 62 - 62) =     19.78264  eV     1   --> A''            
     e( 63 - 63) =     19.85501  eV     1   --> A'             
     e( 64 - 64) =     20.33321  eV     1   --> A'             

 **************************************************************************

 **************************************************************************

                    xk=(   0.27500,   0.00000,   0.27500  )

     Band symmetry, C_s (m)     point group:

     e(  1 -  1) =     -8.87266  eV     1   --> A'             
     e(  2 -  2) =     -8.86598  eV     1   --> A'             
     e(  3 -  3) =     -8.85911  eV     1   --> A''            
     e(  4 -  4) =     -8.81886  eV     1   --> A'             
     e(  5 -  5) =     -8.79407  eV     1   --> A'             
     e(  6 -  6) =     -8.79368  eV     1   --> A''            
     e(  7 -  7) =     -8.78325  eV     1   --> A''            
     e(  8 -  8) =     -8.77861  eV     1   --> A'             
     e(  9 -  9) =     -8.77638  eV     1   --> A''            
     e( 10 - 10) =     -8.75424  eV     1   --> A'             
     e( 11 - 11) =     -8.75079  eV     1   --> A''            
     e( 12 - 12) =     -8.74833  eV     1   --> A'             
     e( 13 - 13) =     -8.74059  eV     1   --> A''            
     e( 14 - 14) =     -8.73829  eV     1   --> A'             
     e( 15 - 15) =     -8.73661  eV     1   --> A''            
     e( 16 - 16) =     -5.98806  eV     1   --> A'             
     e( 17 - 17) =     -4.81434  eV     1   --> A''            
     e( 18 - 18) =     -4.74094  eV     1   --> A'             
     e( 19 - 19) =     -4.36850  eV     1   --> A'             
     e( 20 - 20) =     -0.46229  eV     1   --> A'             
     e( 21 - 21) =     -0.03389  eV     1   --> A''            
     e( 22 - 22) =      0.48624  eV     1   --> A'             
     e( 23 - 23) =      2.12808  eV     1   --> A'             
     e( 24 - 24) =      2.53077  eV     1   --> A'             
     e( 25 - 25) =      2.90902  eV     1   --> A'             
     e( 26 - 26) =      2.91924  eV     1   --> A''            
     e( 27 - 27) =      3.58059  eV     1   --> A''            
     e( 28 - 28) =      3.59794  eV     1   --> A'             
     e( 29 - 29) =      3.77210  eV     1   --> A''            
     e( 30 - 30) =      4.32181  eV     1   --> A'             
     e( 31 - 31) =      5.43772  eV     1   --> A''            
     e( 32 - 32) =      7.82154  eV     1   --> A'             
     e( 33 - 33) =      8.07812  eV     1   --> A'             
     e( 34 - 34) =      8.56702  eV     1   --> A''            
     e( 35 - 35) =      8.77929  eV     1   --> A'             
     e( 36 - 36) =      9.07298  eV     1   --> A''            
     e( 37 - 37) =      9.39440  eV     1   --> A'             
     e( 38 - 38) =      9.90136  eV     1   --> A'             
     e( 39 - 39) =     10.08115  eV     1   --> A''            
     e( 40 - 40) =     10.80707  eV     1   --> A'             
     e( 41 - 41) =     11.18722  eV     1   --> A'             
     e( 42 - 42) =     11.46553  eV     1   --> A'             
     e( 43 - 43) =     11.59840  eV     1   --> A''            
     e( 44 - 44) =     13.32029  eV     1   --> A''            
     e( 45 - 45) =     13.37696  eV     1   --> A'             
     e( 46 - 46) =     13.73465  eV     1   --> A'             
     e( 47 - 47) =     13.80703  eV     1   --> A''            
     e( 48 - 48) =     13.90473  eV     1   --> A''            
     e( 49 - 49) =     14.10703  eV     1   --> A'             
     e( 50 - 50) =     14.96721  eV     1   --> A'             
     e( 51 - 51) =     15.34656  eV     1   --> A'             
     e( 52 - 52) =     15.35353  eV     1   --> A''            
     e( 53 - 53) =     15.78911  eV     1   --> A'             
     e( 54 - 54) =     15.88336  eV     1   --> A''            
     e( 55 - 55) =     16.98401  eV     1   --> A'             
     e( 56 - 56) =     17.24007  eV     1   --> A''            
     e( 57 - 57) =     17.67923  eV     1   --> A'             
     e( 58 - 58) =     18.70582  eV     1   --> A''            
     e( 59 - 59) =     18.72523  eV     1   --> A'             
     e( 60 - 60) =     18.86834  eV     1   --> A'             
     e( 61 - 61) =     19.65338  eV     1   --> A''            
     e( 62 - 62) =     19.73611  eV     1   --> A'             
     e( 63 - 63) =     19.75189  eV     1   --> A'             
     e( 64 - 64) =     20.11115  eV     1   --> A'             

 **************************************************************************

 **************************************************************************

                    xk=(   0.30000,   0.00000,   0.30000  )

     Band symmetry, C_s (m)     point group:

     e(  1 -  1) =     -8.87246  eV     1   --> A'             
     e(  2 -  2) =     -8.86426  eV     1   --> A'             
     e(  3 -  3) =     -8.85684  eV     1   --> A''            
     e(  4 -  4) =     -8.82199  eV     1   --> A'             
     e(  5 -  5) =     -8.79367  eV     1   --> A'             
     e(  6 -  6) =     -8.79337  eV     1   --> A''            
     e(  7 -  7) =     -8.78495  eV     1   --> A''            
     e(  8 -  8) =     -8.77999  eV     1   --> A'             
     e(  9 -  9) =     -8.77776  eV     1   --> A''            
     e( 10 - 10) =     -8.75304  eV     1   --> A'             
     e( 11 - 11) =     -8.75013  eV     1   --> A''            
     e( 12 - 12) =     -8.74746  eV     1   --> A'             
     e( 13 - 13) =     -8.74116  eV     1   --> A''            
     e( 14 - 14) =     -8.73867  eV     1   --> A'             
     e( 15 - 15) =     -8.73737  eV     1   --> A''            
     e( 16 - 16) =     -5.89806  eV     1   --> A'             
     e( 17 - 17) =     -4.86828  eV     1   --> A''            
     e( 18 - 18) =     -4.78882  eV     1   --> A'             
     e( 19 - 19) =     -4.40382  eV     1   --> A'             
     e( 20 - 20) =     -0.41325  eV     1   --> A'             
     e( 21 - 21) =      0.03640  eV     1   --> A''            
     e( 22 - 22) =      0.53393  eV     1   --> A'             
     e( 23 - 23) =      2.09103  eV     1   --> A'             
     e( 24 - 24) =      2.26863  eV     1   --> A'             
     e( 25 - 25) =      2.85937  eV     1   --> A'             
     e( 26 - 26) =      2.87083  eV     1   --> A''            
     e( 27 - 27) =      3.69840  eV     1   --> A''            
     e( 28 - 28) =      3.71247  eV     1   --> A'             
     e( 29 - 29) =      3.85501  eV     1   --> A''            
     e( 30 - 30) =      4.12029  eV     1   --> A'             
     e( 31 - 31) =      5.37313  eV     1   --> A''            
     e( 32 - 32) =      7.90426  eV     1   --> A'             
     e( 33 - 33) =      8.17533  eV     1   --> A'             
     e( 34 - 34) =      8.79118  eV     1   --> A''            
     e( 35 - 35) =      9.01787  eV     1   --> A'             
     e( 36 - 36) =      9.27367  eV     1   --> A''            
     e( 37 - 37) =      9.57991  eV     1   --> A'             
     e( 38 - 38) =     10.01857  eV     1   --> A'             
     e( 39 - 39) =     10.18447  eV     1   --> A''            
     e( 40 - 40) =     11.06303  eV     1   --> A'             
     e( 41 - 41) =     11.19735  eV     1   --> A'             
     e( 42 - 42) =     11.24398  eV     1   --> A''            
     e( 43 - 43) =     11.29449  eV     1   --> A'             
     e( 44 - 44) =     13.08145  eV     1   --> A''            
     e( 45 - 45) =     13.24813  eV     1   --> A'             
     e( 46 - 46) =     13.45953  eV     1   --> A'             
     e( 47 - 47) =     13.67132  eV     1   --> A''            
     e( 48 - 48) =     13.71319  eV     1   --> A''            
     e( 49 - 49) =     13.87209  eV     1   --> A'             
     e( 50 - 50) =     15.04622  eV     1   --> A'             
     e( 51 - 51) =     15.15309  eV     1   --> A''            
     e( 52 - 52) =     15.28603  eV     1   --> A'             
     e( 53 - 53) =     15.64989  eV     1   --> A''            
     e( 54 - 54) =     16.02185  eV     1   --> A'             
     e( 55 - 55) =     16.79937  eV     1   --> A'             
     e( 56 - 56) =     17.05509  eV     1   --> A''            
     e( 57 - 57) =     17.79433  eV     1   --> A'             
     e( 58 - 58) =     18.61296  eV     1   --> A''            
     e( 59 - 59) =     18.84282  eV     1   --> A'             
     e( 60 - 60) =     19.04797  eV     1   --> A'             
     e( 61 - 61) =     19.51125  eV     1   --> A''            
     e( 62 - 62) =     19.61432  eV     1   --> A'             
     e( 63 - 63) =     19.79017  eV     1   --> A'             
     e( 64 - 64) =     19.93179  eV     1   --> A'             

 **************************************************************************

 **************************************************************************

                    xk=(   0.32500,   0.00000,   0.32500  )

     Band symmetry, C_s (m)     point group:

     e(  1 -  1) =     -8.87240  eV     1   --> A'             
     e(  2 -  2) =     -8.86243  eV     1   --> A'             
     e(  3 -  3) =     -8.85474  eV     1   --> A''            
     e(  4 -  4) =     -8.82515  eV     1   --> A'             
     e(  5 -  5) =     -8.79330  eV     1   --> A'             
     e(  6 -  6) =     -8.79309  eV     1   --> A''            
     e(  7 -  7) =     -8.78650  eV     1   --> A''            
     e(  8 -  8) =     -8.78133  eV     1   --> A'             
     e(  9 -  9) =     -8.77922  eV     1   --> A''            
     e( 10 - 10) =     -8.75183  eV     1   --> A'             
     e( 11 - 11) =     -8.74946  eV     1   --> A''            
     e( 12 - 12) =     -8.74663  eV     1   --> A'             
     e( 13 - 13) =     -8.74170  eV     1   --> A''            
     e( 14 - 14) =     -8.73913  eV     1   --> A'             
     e( 15 - 15) =     -8.73814  eV     1   --> A''            
     e( 16 - 16) =     -5.80286  eV     1   --> A'             
     e( 17 - 17) =     -4.91782  eV     1   --> A''            
     e( 18 - 18) =     -4.83306  eV     1   --> A'             
     e( 19 - 19) =     -4.44881  eV     1   --> A'             
     e( 20 - 20) =     -0.35844  eV     1   --> A'             
     e( 21 - 21) =      0.09632  eV     1   --> A''            
     e( 22 - 22) =      0.57049  eV     1   --> A'             
     e( 23 - 23) =      2.00750  eV     1   --> A'             
     e( 24 - 24) =      2.09234  eV     1   --> A'             
     e( 25 - 25) =      2.81410  eV     1   --> A'             
     e( 26 - 26) =      2.82544  eV     1   --> A''            
     e( 27 - 27) =      3.83371  eV     1   --> A''            
     e( 28 - 28) =      3.84401  eV     1   --> A'             
     e( 29 - 29) =      3.91848  eV     1   --> A'             
     e( 30 - 30) =      3.94295  eV     1   --> A''            
     e( 31 - 31) =      5.30140  eV     1   --> A''            
     e( 32 - 32) =      7.98740  eV     1   --> A'             
     e( 33 - 33) =      8.25973  eV     1   --> A'             
     e( 34 - 34) =      8.99079  eV     1   --> A''            
     e( 35 - 35) =      9.26180  eV     1   --> A'             
     e( 36 - 36) =      9.45152  eV     1   --> A''            
     e( 37 - 37) =      9.70076  eV     1   --> A'             
     e( 38 - 38) =     10.15357  eV     1   --> A'             
     e( 39 - 39) =     10.29673  eV     1   --> A''            
     e( 40 - 40) =     10.81671  eV     1   --> A'             
     e( 41 - 41) =     10.97257  eV     1   --> A''            
     e( 42 - 42) =     11.32122  eV     1   --> A'             
     e( 43 - 43) =     11.49007  eV     1   --> A'             
     e( 44 - 44) =     12.84133  eV     1   --> A''            
     e( 45 - 45) =     13.12674  eV     1   --> A'             
     e( 46 - 46) =     13.25171  eV     1   --> A'             
     e( 47 - 47) =     13.42460  eV     1   --> A''            
     e( 48 - 48) =     13.64532  eV     1   --> A''            
     e( 49 - 49) =     13.65022  eV     1   --> A'             
     e( 50 - 50) =     14.94356  eV     1   --> A''            
     e( 51 - 51) =     14.97099  eV     1   --> A'             
     e( 52 - 52) =     15.42547  eV     1   --> A'             
     e( 53 - 53) =     15.42670  eV     1   --> A''            
     e( 54 - 54) =     16.24733  eV     1   --> A'             
     e( 55 - 55) =     16.61666  eV     1   --> A'             
     e( 56 - 56) =     16.86634  eV     1   --> A''            
     e( 57 - 57) =     17.92427  eV     1   --> A'             
     e( 58 - 58) =     18.50520  eV     1   --> A''            
     e( 59 - 59) =     18.78704  eV     1   --> A'             
     e( 60 - 60) =     19.37336  eV     1   --> A''            
     e( 61 - 61) =     19.37524  eV     1   --> A'             
     e( 62 - 62) =     19.50395  eV     1   --> A'             
     e( 63 - 63) =     19.73101  eV     1   --> A'             
     e( 64 - 64) =     19.83453  eV     1   --> A'             

 **************************************************************************

 **************************************************************************

                    xk=(   0.35000,   0.00000,   0.35000  )

     Band symmetry, C_s (m)     point group:

     e(  1 -  1) =     -8.87235  eV     1   --> A'             
     e(  2 -  2) =     -8.86037  eV     1   --> A'             
     e(  3 -  3) =     -8.85276  eV     1   --> A''            
     e(  4 -  4) =     -8.82827  eV     1   --> A'             
     e(  5 -  6) =     -8.79287  eV     2   --> A'             
     e(  5 -  6) =     -8.79287  eV     2   --> A''            
     e(  7 -  7) =     -8.78771  eV     1   --> A''            
     e(  8 -  8) =     -8.78258  eV     1   --> A'             
     e(  9 -  9) =     -8.78067  eV     1   --> A''            
     e( 10 - 10) =     -8.75061  eV     1   --> A'             
     e( 11 - 11) =     -8.74873  eV     1   --> A''            
     e( 12 - 12) =     -8.74584  eV     1   --> A'             
     e( 13 - 13) =     -8.74222  eV     1   --> A''            
     e( 14 - 14) =     -8.73963  eV     1   --> A'             
     e( 15 - 15) =     -8.73890  eV     1   --> A''            
     e( 16 - 16) =     -5.70314  eV     1   --> A'             
     e( 17 - 17) =     -4.96189  eV     1   --> A''            
     e( 18 - 18) =     -4.87298  eV     1   --> A'             
     e( 19 - 19) =     -4.50312  eV     1   --> A'             
     e( 20 - 20) =     -0.29586  eV     1   --> A'             
     e( 21 - 21) =      0.14602  eV     1   --> A''            
     e( 22 - 22) =      0.59431  eV     1   --> A'             
     e( 23 - 23) =      1.77804  eV     1   --> A'             
     e( 24 - 24) =      2.10486  eV     1   --> A'             
     e( 25 - 25) =      2.77371  eV     1   --> A'             
     e( 26 - 26) =      2.78499  eV     1   --> A''            
     e( 27 - 27) =      3.71852  eV     1   --> A'             
     e( 28 - 28) =      3.98132  eV     1   --> A''            
     e( 29 - 29) =      3.98906  eV     1   --> A'             
     e( 30 - 30) =      4.03716  eV     1   --> A''            
     e( 31 - 31) =      5.22332  eV     1   --> A''            
     e( 32 - 32) =      8.07136  eV     1   --> A'             
     e( 33 - 33) =      8.32980  eV     1   --> A'             
     e( 34 - 34) =      9.10415  eV     1   --> A''            
     e( 35 - 35) =      9.46760  eV     1   --> A'             
     e( 36 - 36) =      9.62571  eV     1   --> A''            
     e( 37 - 37) =      9.73292  eV     1   --> A'             
     e( 38 - 38) =     10.30930  eV     1   --> A'             
     e( 39 - 39) =     10.41798  eV     1   --> A''            
     e( 40 - 40) =     10.71488  eV     1   --> A'             
     e( 41 - 41) =     10.83359  eV     1   --> A''            
     e( 42 - 42) =     11.33065  eV     1   --> A'             
     e( 43 - 43) =     11.66690  eV     1   --> A'             
     e( 44 - 44) =     12.60653  eV     1   --> A''            
     e( 45 - 45) =     12.87392  eV     1   --> A'             
     e( 46 - 46) =     13.16315  eV     1   --> A''            
     e( 47 - 47) =     13.18961  eV     1   --> A'             
     e( 48 - 48) =     13.55632  eV     1   --> A'             
     e( 49 - 49) =     13.60341  eV     1   --> A''            
     e( 50 - 50) =     14.73602  eV     1   --> A''            
     e( 51 - 51) =     14.83313  eV     1   --> A'             
     e( 52 - 52) =     15.21960  eV     1   --> A''            
     e( 53 - 53) =     15.67054  eV     1   --> A'             
     e( 54 - 54) =     16.35203  eV     1   --> A'             
     e( 55 - 55) =     16.55492  eV     1   --> A'             
     e( 56 - 56) =     16.68236  eV     1   --> A''            
     e( 57 - 57) =     18.06949  eV     1   --> A'             
     e( 58 - 58) =     18.39692  eV     1   --> A''            
     e( 59 - 59) =     18.69987  eV     1   --> A'             
     e( 60 - 60) =     19.24613  eV     1   --> A''            
     e( 61 - 61) =     19.38988  eV     1   --> A'             
     e( 62 - 62) =     19.57082  eV     1   --> A'             
     e( 63 - 63) =     19.75651  eV     1   --> A'             
     e( 64 - 64) =     19.79443  eV     1   --> A'             

 **************************************************************************

 **************************************************************************

                    xk=(   0.37500,   0.00000,   0.37500  )

     Band symmetry, C_s (m)     point group:

     e(  1 -  1) =     -8.87235  eV     1   --> A'             
     e(  2 -  2) =     -8.85819  eV     1   --> A'             
     e(  3 -  3) =     -8.85098  eV     1   --> A''            
     e(  4 -  4) =     -8.83135  eV     1   --> A'             
     e(  5 -  6) =     -8.79246  eV     2   --> A'             
     e(  5 -  6) =     -8.79246  eV     2   --> A''            
     e(  7 -  7) =     -8.78860  eV     1   --> A''            
     e(  8 -  8) =     -8.78378  eV     1   --> A'             
     e(  9 -  9) =     -8.78219  eV     1   --> A''            
     e( 10 - 10) =     -8.74942  eV     1   --> A'             
     e( 11 - 11) =     -8.74800  eV     1   --> A''            
     e( 12 - 12) =     -8.74515  eV     1   --> A'             
     e( 13 - 13) =     -8.74265  eV     1   --> A''            
     e( 14 - 14) =     -8.74022  eV     1   --> A'             
     e( 15 - 15) =     -8.73972  eV     1   --> A''            
     e( 16 - 16) =     -5.59991  eV     1   --> A'             
     e( 17 - 17) =     -5.00004  eV     1   --> A''            
     e( 18 - 18) =     -4.90829  eV     1   --> A'             
     e( 19 - 19) =     -4.56677  eV     1   --> A'             
     e( 20 - 20) =     -0.22387  eV     1   --> A'             
     e( 21 - 21) =      0.18590  eV     1   --> A''            
     e( 22 - 22) =      0.60321  eV     1   --> A'             
     e( 23 - 23) =      1.56476  eV     1   --> A'             
     e( 24 - 24) =      2.14651  eV     1   --> A'             
     e( 25 - 25) =      2.73859  eV     1   --> A'             
     e( 26 - 26) =      2.75003  eV     1   --> A''            
     e( 27 - 27) =      3.52291  eV     1   --> A'             
     e( 28 - 28) =      4.12199  eV     1   --> A''            
     e( 29 - 29) =      4.13981  eV     1   --> A'             
     e( 30 - 30) =      4.14900  eV     1   --> A''            
     e( 31 - 31) =      5.13970  eV     1   --> A''            
     e( 32 - 32) =      8.15332  eV     1   --> A'             
     e( 33 - 33) =      8.38243  eV     1   --> A'             
     e( 34 - 34) =      9.06665  eV     1   --> A''            
     e( 35 - 35) =      9.42609  eV     1   --> A'             
     e( 36 - 36) =      9.84375  eV     1   --> A''            
     e( 37 - 37) =      9.88848  eV     1   --> A'             
     e( 38 - 38) =     10.47533  eV     1   --> A'             
     e( 39 - 39) =     10.54887  eV     1   --> A''            
     e( 40 - 40) =     10.77813  eV     1   --> A'             
     e( 41 - 41) =     10.84080  eV     1   --> A''            
     e( 42 - 42) =     11.32184  eV     1   --> A'             
     e( 43 - 43) =     11.71553  eV     1   --> A'             
     e( 44 - 44) =     12.37688  eV     1   --> A''            
     e( 45 - 45) =     12.60480  eV     1   --> A'             
     e( 46 - 46) =     12.88759  eV     1   --> A''            
     e( 47 - 47) =     12.98228  eV     1   --> A'             
     e( 48 - 48) =     13.58346  eV     1   --> A''            
     e( 49 - 49) =     13.76905  eV     1   --> A'             
     e( 50 - 50) =     14.53634  eV     1   --> A''            
     e( 51 - 51) =     14.68158  eV     1   --> A'             
     e( 52 - 52) =     15.02402  eV     1   --> A''            
     e( 53 - 53) =     15.92727  eV     1   --> A'             
     e( 54 - 54) =     16.22300  eV     1   --> A'             
     e( 55 - 55) =     16.50813  eV     1   --> A''            
     e( 56 - 56) =     16.74724  eV     1   --> A'             
     e( 57 - 57) =     18.22442  eV     1   --> A'             
     e( 58 - 58) =     18.29805  eV     1   --> A''            
     e( 59 - 59) =     18.60242  eV     1   --> A'             
     e( 60 - 60) =     19.13342  eV     1   --> A''            
     e( 61 - 61) =     19.29421  eV     1   --> A'             
     e( 62 - 62) =     19.47245  eV     1   --> A'             
     e( 63 - 63) =     19.66835  eV     1   --> A'             
     e( 64 - 64) =     19.82164  eV     1   --> A'             

 **************************************************************************

 **************************************************************************

                    xk=(   0.40000,   0.00000,   0.40000  )

     Band symmetry, C_s (m)     point group:

     e(  1 -  1) =     -8.87234  eV     1   --> A'             
     e(  2 -  2) =     -8.85582  eV     1   --> A'             
     e(  3 -  3) =     -8.84946  eV     1   --> A''            
     e(  4 -  4) =     -8.83432  eV     1   --> A'             
     e(  5 -  5) =     -8.79212  eV     1   --> A''            
     e(  6 -  6) =     -8.79194  eV     1   --> A'             
     e(  7 -  7) =     -8.78918  eV     1   --> A''            
     e(  8 -  8) =     -8.78482  eV     1   --> A'             
     e(  9 -  9) =     -8.78362  eV     1   --> A''            
     e( 10 - 10) =     -8.74822  eV     1   --> A'             
     e( 11 - 11) =     -8.74721  eV     1   --> A''            
     e( 12 - 12) =     -8.74453  eV     1   --> A'             
     e( 13 - 13) =     -8.74300  eV     1   --> A''            
     e( 14 - 14) =     -8.74081  eV     1   --> A'             
     e( 15 - 15) =     -8.74043  eV     1   --> A''            
     e( 16 - 16) =     -5.49422  eV     1   --> A'             
     e( 17 - 17) =     -5.03178  eV     1   --> A''            
     e( 18 - 18) =     -4.93880  eV     1   --> A'             
     e( 19 - 19) =     -4.63858  eV     1   --> A'             
     e( 20 - 20) =     -0.14103  eV     1   --> A'             
     e( 21 - 21) =      0.21677  eV     1   --> A''            
     e( 22 - 22) =      0.59390  eV     1   --> A'             
     e( 23 - 23) =      1.37772  eV     1   --> A'             
     e( 24 - 24) =      2.21172  eV     1   --> A'             
     e( 25 - 25) =      2.70915  eV     1   --> A'             
     e( 26 - 26) =      2.72068  eV     1   --> A''            
     e( 27 - 27) =      3.33337  eV     1   --> A'             
     e( 28 - 28) =      4.22867  eV     1   --> A''            
     e( 29 - 29) =      4.28948  eV     1   --> A'             
     e( 30 - 30) =      4.29802  eV     1   --> A''            
     e( 31 - 31) =      5.05030  eV     1   --> A''            
     e( 32 - 32) =      8.23070  eV     1   --> A'             
     e( 33 - 33) =      8.41377  eV     1   --> A'             
     e( 34 - 34) =      8.92014  eV     1   --> A''            
     e( 35 - 35) =      9.23980  eV     1   --> A'             
     e( 36 - 36) =     10.10644  eV     1   --> A''            
     e( 37 - 37) =     10.15367  eV     1   --> A'             
     e( 38 - 38) =     10.64910  eV     1   --> A'             
     e( 39 - 39) =     10.68945  eV     1   --> A''            
     e( 40 - 40) =     10.92681  eV     1   --> A'             
     e( 41 - 41) =     10.94858  eV     1   --> A''            
     e( 42 - 42) =     11.30775  eV     1   --> A'             
     e( 43 - 43) =     11.68098  eV     1   --> A'             
     e( 44 - 44) =     12.15571  eV     1   --> A''            
     e( 45 - 45) =     12.34271  eV     1   --> A'             
     e( 46 - 46) =     12.60163  eV     1   --> A''            
     e( 47 - 47) =     12.71529  eV     1   --> A'             
     e( 48 - 48) =     13.57303  eV     1   --> A''            
     e( 49 - 49) =     14.13259  eV     1   --> A'             
     e( 50 - 50) =     14.36055  eV     1   --> A''            
     e( 51 - 51) =     14.54447  eV     1   --> A'             
     e( 52 - 52) =     14.84755  eV     1   --> A''            
     e( 53 - 53) =     16.01078  eV     1   --> A'             
     e( 54 - 54) =     16.23790  eV     1   --> A'             
     e( 55 - 55) =     16.36085  eV     1   --> A''            
     e( 56 - 56) =     16.98056  eV     1   --> A'             
     e( 57 - 57) =     18.21624  eV     1   --> A''            
     e( 58 - 58) =     18.37168  eV     1   --> A'             
     e( 59 - 59) =     18.53195  eV     1   --> A'             
     e( 60 - 60) =     19.03911  eV     1   --> A''            
     e( 61 - 61) =     19.19636  eV     1   --> A'             
     e( 62 - 62) =     19.33459  eV     1   --> A'             
     e( 63 - 63) =     19.56854  eV     1   --> A'             
     e( 64 - 64) =     19.58688  eV     1   --> A'             

 **************************************************************************

 **************************************************************************

                    xk=(   0.42500,   0.00000,   0.42500  )

     Band symmetry, C_s (m)     point group:

     e(  1 -  1) =     -8.87246  eV     1   --> A'             
     e(  2 -  2) =     -8.85354  eV     1   --> A'             
     e(  3 -  3) =     -8.84826  eV     1   --> A''            
     e(  4 -  4) =     -8.83728  eV     1   --> A'             
     e(  5 -  5) =     -8.79166  eV     1   --> A''            
     e(  6 -  6) =     -8.79142  eV     1   --> A'             
     e(  7 -  7) =     -8.78952  eV     1   --> A''            
     e(  8 -  8) =     -8.78589  eV     1   --> A'             
     e(  9 -  9) =     -8.78505  eV     1   --> A''            
     e( 10 - 10) =     -8.74709  eV     1   --> A'             
     e( 11 - 11) =     -8.74646  eV     1   --> A''            
     e( 12 - 12) =     -8.74404  eV     1   --> A'             
     e( 13 - 13) =     -8.74338  eV     1   --> A''            
     e( 14 - 14) =     -8.74144  eV     1   --> A'             
     e( 15 - 15) =     -8.74123  eV     1   --> A''            
     e( 16 - 16) =     -5.38768  eV     1   --> A'             
     e( 17 - 17) =     -5.05688  eV     1   --> A''            
     e( 18 - 18) =     -4.96573  eV     1   --> A'             
     e( 19 - 19) =     -4.71693  eV     1   --> A'             
     e( 20 - 20) =     -0.04738  eV     1   --> A'             
     e( 21 - 21) =      0.23947  eV     1   --> A''            
     e( 22 - 22) =      0.55963  eV     1   --> A'             
     e( 23 - 23) =      1.22572  eV     1   --> A'             
     e( 24 - 24) =      2.29743  eV     1   --> A'             
     e( 25 - 25) =      2.68581  eV     1   --> A'             
     e( 26 - 26) =      2.69735  eV     1   --> A''            
     e( 27 - 27) =      3.15152  eV     1   --> A'             
     e( 28 - 28) =      4.33130  eV     1   --> A''            
     e( 29 - 29) =      4.42627  eV     1   --> A'             
     e( 30 - 30) =      4.44014  eV     1   --> A''            
     e( 31 - 31) =      4.95693  eV     1   --> A''            
     e( 32 - 32) =      8.29440  eV     1   --> A'             
     e( 33 - 33) =      8.42062  eV     1   --> A'             
     e( 34 - 34) =      8.74156  eV     1   --> A''            
     e( 35 - 35) =      9.06159  eV     1   --> A'             
     e( 36 - 36) =     10.39178  eV     1   --> A''            
     e( 37 - 37) =     10.43534  eV     1   --> A'             
     e( 38 - 38) =     10.83397  eV     1   --> A'             
     e( 39 - 39) =     10.84122  eV     1   --> A''            
     e( 40 - 40) =     11.09105  eV     1   --> A'             
     e( 41 - 41) =     11.09537  eV     1   --> A''            
     e( 42 - 42) =     11.29979  eV     1   --> A'             
     e( 43 - 43) =     11.61074  eV     1   --> A'             
     e( 44 - 44) =     11.94021  eV     1   --> A''            
     e( 45 - 45) =     12.08118  eV     1   --> A'             
     e( 46 - 46) =     12.30664  eV     1   --> A''            
     e( 47 - 47) =     12.42709  eV     1   --> A'             
     e( 48 - 48) =     13.56092  eV     1   --> A''            
     e( 49 - 49) =     14.22152  eV     1   --> A''            
     e( 50 - 50) =     14.35455  eV     1   --> A'             
     e( 51 - 51) =     14.61876  eV     1   --> A'             
     e( 52 - 52) =     14.67371  eV     1   --> A''            
     e( 53 - 53) =     15.90828  eV     1   --> A'             
     e( 54 - 54) =     16.23732  eV     1   --> A''            
     e( 55 - 55) =     16.37428  eV     1   --> A'             
     e( 56 - 56) =     17.24570  eV     1   --> A'             
     e( 57 - 57) =     18.15158  eV     1   --> A''            
     e( 58 - 58) =     18.39157  eV     1   --> A'             
     e( 59 - 59) =     18.59131  eV     1   --> A'             
     e( 60 - 60) =     18.96425  eV     1   --> A''            
     e( 61 - 61) =     19.07255  eV     1   --> A'             
     e( 62 - 62) =     19.20165  eV     1   --> A'             
     e( 63 - 63) =     19.31105  eV     1   --> A'             
     e( 64 - 64) =     19.44734  eV     1   --> A'             

 **************************************************************************

 **************************************************************************

                    xk=(   0.45000,   0.00000,   0.45000  )

     Band symmetry, C_s (m)     point group:

     e(  1 -  1) =     -8.87251  eV     1   --> A'             
     e(  2 -  2) =     -8.85105  eV     1   --> A'             
     e(  3 -  3) =     -8.84741  eV     1   --> A''            
     e(  4 -  4) =     -8.84009  eV     1   --> A'             
     e(  5 -  5) =     -8.79112  eV     1   --> A''            
[...]
     e( 10 - 10) =     -8.76026  eV     1   --> A'             
     e( 11 - 11) =     -8.75374  eV     1   --> A'             
     e( 12 - 12) =     -8.75294  eV     1   --> A''            
     e( 13 - 13) =     -8.73752  eV     1   --> A'             
     e( 14 - 14) =     -8.73673  eV     1   --> A''            
     e( 15 - 15) =     -8.73287  eV     1   --> A''            
     e( 16 - 16) =     -6.37925  eV     1   --> A'             
     e( 17 - 17) =     -4.50456  eV     1   --> A'             
     e( 18 - 18) =     -4.35823  eV     1   --> A''            
     e( 19 - 19) =     -4.34716  eV     1   --> A'             
     e( 20 - 20) =     -0.69282  eV     1   --> A''            
     e( 21 - 21) =     -0.56965  eV     1   --> A'             
     e( 22 - 22) =      0.10230  eV     1   --> A'             
     e( 23 - 23) =      2.91708  eV     1   --> A''            
     e( 24 - 24) =      2.93904  eV     1   --> A'             
     e( 25 - 25) =      3.19094  eV     1   --> A'             
     e( 26 - 26) =      3.35270  eV     1   --> A''            
     e( 27 - 27) =      3.35797  eV     1   --> A'             
     e( 28 - 28) =      3.42439  eV     1   --> A''            
     e( 29 - 29) =      4.28045  eV     1   --> A'             
     e( 30 - 30) =      5.48955  eV     1   --> A''            
     e( 31 - 31) =      5.57214  eV     1   --> A'             
     e( 32 - 32) =      7.21691  eV     1   --> A'             
     e( 33 - 33) =      7.39345  eV     1   --> A'             
     e( 34 - 34) =      7.48673  eV     1   --> A''            
     e( 35 - 35) =      7.67697  eV     1   --> A'             
     e( 36 - 36) =      7.96393  eV     1   --> A'             
     e( 37 - 37) =      8.14105  eV     1   --> A''            
     e( 38 - 38) =      8.61444  eV     1   --> A'             
     e( 39 - 39) =      9.47532  eV     1   --> A'             
     e( 40 - 40) =      9.90200  eV     1   --> A''            
     e( 41 - 41) =      9.93162  eV     1   --> A'             
     e( 42 - 42) =     14.10246  eV     1   --> A'             
     e( 43 - 43) =     14.24668  eV     1   --> A''            
     e( 44 - 44) =     14.39332  eV     1   --> A'             
     e( 45 - 45) =     14.41860  eV     1   --> A'             
     e( 46 - 46) =     14.59468  eV     1   --> A'             
     e( 47 - 47) =     14.76032  eV     1   --> A''            
     e( 48 - 48) =     14.91803  eV     1   --> A''            
     e( 49 - 49) =     14.98768  eV     1   --> A'             
     e( 50 - 50) =     15.31423  eV     1   --> A''            
     e( 51 - 51) =     15.99120  eV     1   --> A'             
     e( 52 - 52) =     16.15202  eV     1   --> A'             
     e( 53 - 53) =     16.18810  eV     1   --> A''            
     e( 54 - 54) =     16.91205  eV     1   --> A'             
     e( 55 - 55) =     17.61826  eV     1   --> A'             
     e( 56 - 56) =     17.68925  eV     1   --> A''            
     e( 57 - 57) =     18.17710  eV     1   --> A''            
     e( 58 - 58) =     18.37519  eV     1   --> A'             
     e( 59 - 59) =     18.47506  eV     1   --> A''            
     e( 60 - 60) =     18.47984  eV     1   --> A'             
     e( 61 - 61) =     18.60967  eV     1   --> A''            
     e( 62 - 62) =     18.66071  eV     1   --> A'             
     e( 63 - 63) =     19.39628  eV     1   --> A''            
     e( 64 - 64) =     19.65081  eV     1   --> A'             

 **************************************************************************

 **************************************************************************

                    xk=(   0.05625,   0.05625,   0.11100  )

     Band symmetry, C_s (m)     point group:

     e(  1 -  1) =     -8.87549  eV     1   --> A'             
     e(  2 -  2) =     -8.87422  eV     1   --> A''            
     e(  3 -  3) =     -8.87368  eV     1   --> A'             
     e(  4 -  4) =     -8.79975  eV     1   --> A'             
     e(  5 -  6) =     -8.79590  eV     2   --> A'             
     e(  5 -  6) =     -8.79590  eV     2   --> A''            
     e(  7 -  7) =     -8.77080  eV     1   --> A'             
     e(  8 -  8) =     -8.77069  eV     1   --> A''            
     e(  9 -  9) =     -8.76967  eV     1   --> A''            
     e( 10 - 10) =     -8.76112  eV     1   --> A'             
     e( 11 - 11) =     -8.75412  eV     1   --> A'             
     e( 12 - 12) =     -8.75364  eV     1   --> A''            
     e( 13 - 13) =     -8.73704  eV     1   --> A'             
     e( 14 - 14) =     -8.73657  eV     1   --> A''            
     e( 15 - 15) =     -8.73232  eV     1   --> A''            
     e( 16 - 16) =     -6.42954  eV     1   --> A'             
     e( 17 - 17) =     -4.42522  eV     1   --> A'             
     e( 18 - 18) =     -4.33802  eV     1   --> A''            
     e( 19 - 19) =     -4.33140  eV     1   --> A'             
     e( 20 - 20) =     -0.74028  eV     1   --> A''            
     e( 21 - 21) =     -0.66478  eV     1   --> A'             
     e( 22 - 22) =      0.03046  eV     1   --> A'             
     e( 23 - 23) =      3.06145  eV     1   --> A''            
     e( 24 - 24) =      3.07759  eV     1   --> A'             
     e( 25 - 25) =      3.23228  eV     1   --> A'             
     e( 26 - 26) =      3.33056  eV     1   --> A''            
     e( 27 - 27) =      3.33552  eV     1   --> A'             
     e( 28 - 28) =      3.37297  eV     1   --> A''            
     e( 29 - 29) =      4.70179  eV     1   --> A'             
     e( 30 - 30) =      5.58785  eV     1   --> A''            
     e( 31 - 31) =      5.64159  eV     1   --> A'             
     e( 32 - 32) =      6.99479  eV     1   --> A'             
     e( 33 - 33) =      7.31944  eV     1   --> A'             
     e( 34 - 34) =      7.39888  eV     1   --> A''            
     e( 35 - 35) =      7.52971  eV     1   --> A'             
     e( 36 - 36) =      7.72146  eV     1   --> A'             
     e( 37 - 37) =      7.80725  eV     1   --> A''            
     e( 38 - 38) =      8.38241  eV     1   --> A'             
     e( 39 - 39) =      9.49032  eV     1   --> A'             
     e( 40 - 40) =      9.75380  eV     1   --> A''            
     e( 41 - 41) =      9.75578  eV     1   --> A'             
     e( 42 - 42) =     13.86220  eV     1   --> A'             
     e( 43 - 43) =     14.74477  eV     1   --> A''            
     e( 44 - 44) =     14.82925  eV     1   --> A'             
     e( 45 - 45) =     14.88513  eV     1   --> A'             
     e( 46 - 46) =     14.92114  eV     1   --> A'             
     e( 47 - 47) =     15.07699  eV     1   --> A''            
     e( 48 - 48) =     15.17582  eV     1   --> A''            
     e( 49 - 49) =     15.22877  eV     1   --> A'             
     e( 50 - 50) =     15.42368  eV     1   --> A''            
     e( 51 - 51) =     16.17110  eV     1   --> A'             
     e( 52 - 52) =     16.21874  eV     1   --> A'             
     e( 53 - 53) =     16.29882  eV     1   --> A''            
     e( 54 - 54) =     17.02157  eV     1   --> A'             
     e( 55 - 55) =     17.52569  eV     1   --> A''            
     e( 56 - 56) =     17.63496  eV     1   --> A'             
     e( 57 - 57) =     18.15880  eV     1   --> A''            
     e( 58 - 58) =     18.25278  eV     1   --> A'             
     e( 59 - 59) =     18.47389  eV     1   --> A'             
     e( 60 - 60) =     18.54703  eV     1   --> A'             
     e( 61 - 61) =     18.55357  eV     1   --> A''            
     e( 62 - 62) =     18.69931  eV     1   --> A''            
     e( 63 - 63) =     19.31907  eV     1   --> A''            
     e( 64 - 64) =     19.43293  eV     1   --> A'             

 **************************************************************************

 **************************************************************************

                    xk=(   0.03750,   0.03750,   0.07400  )

     Band symmetry, C_s (m)     point group:

     e(  1 -  1) =     -8.87572  eV     1   --> A'             
     e(  2 -  2) =     -8.87515  eV     1   --> A''            
     e(  3 -  3) =     -8.87489  eV     1   --> A'             
     e(  4 -  4) =     -8.79781  eV     1   --> A'             
     e(  5 -  6) =     -8.79606  eV     2   --> A'             
     e(  5 -  6) =     -8.79606  eV     2   --> A''            
     e(  7 -  8) =     -8.76969  eV     2   --> A'             
     e(  7 -  8) =     -8.76969  eV     2   --> A''            
     e(  9 -  9) =     -8.76918  eV     1   --> A''            
     e( 10 - 10) =     -8.76178  eV     1   --> A'             
     e( 11 - 11) =     -8.75441  eV     1   --> A'             
     e( 12 - 12) =     -8.75417  eV     1   --> A''            
     e( 13 - 13) =     -8.73667  eV     1   --> A'             
     e( 14 - 14) =     -8.73644  eV     1   --> A''            
     e( 15 - 15) =     -8.73189  eV     1   --> A''            
     e( 16 - 16) =     -6.46577  eV     1   --> A'             
     e( 17 - 17) =     -4.36321  eV     1   --> A'             
     e( 18 - 18) =     -4.32276  eV     1   --> A''            
     e( 19 - 19) =     -4.31974  eV     1   --> A'             
     e( 20 - 20) =     -0.77740  eV     1   --> A''            
     e( 21 - 21) =     -0.74167  eV     1   --> A'             
     e( 22 - 22) =     -0.02301  eV     1   --> A'             
     e( 23 - 23) =      3.18628  eV     1   --> A''            
     e( 24 - 24) =      3.19642  eV     1   --> A'             
     e( 25 - 25) =      3.26954  eV     1   --> A'             
     e( 26 - 26) =      3.31526  eV     1   --> A''            
     e( 27 - 27) =      3.32009  eV     1   --> A'             
     e( 28 - 28) =      3.33601  eV     1   --> A''            
     e( 29 - 29) =      5.11463  eV     1   --> A'             
     e( 30 - 30) =      5.66475  eV     1   --> A''            
     e( 31 - 31) =      5.69140  eV     1   --> A'             
     e( 32 - 32) =      6.71583  eV     1   --> A'             
     e( 33 - 33) =      7.27924  eV     1   --> A'             
     e( 34 - 34) =      7.33562  eV     1   --> A''            
     e( 35 - 35) =      7.40685  eV     1   --> A'             
     e( 36 - 36) =      7.52449  eV     1   --> A'             
     e( 37 - 37) =      7.54857  eV     1   --> A''            
     e( 38 - 38) =      8.22070  eV     1   --> A'             
     e( 39 - 39) =      9.51282  eV     1   --> A'             
     e( 40 - 40) =      9.63375  eV     1   --> A'             
     e( 41 - 41) =      9.63854  eV     1   --> A''            
     e( 42 - 42) =     13.65719  eV     1   --> A'             
     e( 43 - 43) =     15.15800  eV     1   --> A'             
     e( 44 - 44) =     15.16524  eV     1   --> A''            
     e( 45 - 45) =     15.25988  eV     1   --> A'             
     e( 46 - 46) =     15.27872  eV     1   --> A'             
     e( 47 - 47) =     15.31614  eV     1   --> A''            
     e( 48 - 48) =     15.41494  eV     1   --> A''            
     e( 49 - 49) =     15.43329  eV     1   --> A'             
     e( 50 - 50) =     15.53482  eV     1   --> A''            
     e( 51 - 51) =     16.26241  eV     1   --> A'             
     e( 52 - 52) =     16.34870  eV     1   --> A''            
     e( 53 - 53) =     16.37964  eV     1   --> A'             
     e( 54 - 54) =     17.11657  eV     1   --> A'             
     e( 55 - 55) =     17.34535  eV     1   --> A''            
     e( 56 - 56) =     17.47858  eV     1   --> A'             
     e( 57 - 57) =     18.21269  eV     1   --> A''            
     e( 58 - 58) =     18.23194  eV     1   --> A'             
     e( 59 - 59) =     18.41915  eV     1   --> A'             
     e( 60 - 60) =     18.64328  eV     1   --> A'             
     e( 61 - 61) =     18.68050  eV     1   --> A''            
     e( 62 - 62) =     18.81864  eV     1   --> A''            
     e( 63 - 63) =     19.20916  eV     1   --> A'             
     e( 64 - 64) =     19.23616  eV     1   --> A''            

 **************************************************************************

 **************************************************************************

                    xk=(   0.01875,   0.01875,   0.03700  )

     Band symmetry, C_s (m)     point group:

     e(  1 -  1) =     -8.87587  eV     1   --> A'             
     e(  2 -  3) =     -8.87572  eV     2   --> A'             
     e(  2 -  3) =     -8.87572  eV     2   --> A''            
     e(  4 -  4) =     -8.79660  eV     1   --> A'             
     e(  5 -  6) =     -8.79616  eV     2   --> A'             
     e(  5 -  6) =     -8.79616  eV     2   --> A''            
     e(  7 -  8) =     -8.76898  eV     2   --> A'             
     e(  7 -  8) =     -8.76898  eV     2   --> A''            
     e(  9 -  9) =     -8.76885  eV     1   --> A''            
     e( 10 - 10) =     -8.76214  eV     1   --> A'             
     e( 11 - 12) =     -8.75455  eV     2   --> A'             
     e( 11 - 12) =     -8.75455  eV     2   --> A''            
     e( 13 - 14) =     -8.73645  eV     2   --> A'             
     e( 13 - 14) =     -8.73645  eV     2   --> A''            
     e( 15 - 15) =     -8.73163  eV     1   --> A''            
     e( 16 - 16) =     -6.48762  eV     1   --> A'             
     e( 17 - 17) =     -4.32372  eV     1   --> A'             
     e( 18 - 18) =     -4.31333  eV     1   --> A''            
     e( 19 - 19) =     -4.31258  eV     1   --> A'             
     e( 20 - 20) =     -0.80092  eV     1   --> A''            
     e( 21 - 21) =     -0.79165  eV     1   --> A'             
     e( 22 - 22) =     -0.05571  eV     1   --> A'             
     e( 23 - 23) =      3.27223  eV     1   --> A''            
     e( 24 - 24) =      3.27728  eV     1   --> A'             
     e( 25 - 25) =      3.29558  eV     1   --> A'             
     e( 26 - 26) =      3.30587  eV     1   --> A''            
     e( 27 - 27) =      3.31110  eV     1   --> A'             
     e( 28 - 28) =      3.31424  eV     1   --> A''            
     e( 29 - 29) =      5.50000  eV     1   --> A'             
     e( 30 - 30) =      5.71371  eV     1   --> A''            
     e( 31 - 31) =      5.72078  eV     1   --> A'             
     e( 32 - 32) =      6.40714  eV     1   --> A'             
     e( 33 - 33) =      7.27159  eV     1   --> A'             
     e( 34 - 34) =      7.29891  eV     1   --> A''            
     e( 35 - 35) =      7.32124  eV     1   --> A'             
     e( 36 - 36) =      7.38188  eV     1   --> A''            
     e( 37 - 37) =      7.38713  eV     1   --> A'             
     e( 38 - 38) =      8.12812  eV     1   --> A'             
     e( 39 - 39) =      9.53227  eV     1   --> A'             
     e( 40 - 40) =      9.56294  eV     1   --> A'             
     e( 41 - 41) =      9.56510  eV     1   --> A''            
     e( 42 - 42) =     13.52488  eV     1   --> A'             
     e( 43 - 43) =     15.40919  eV     1   --> A'             
     e( 44 - 44) =     15.44312  eV     1   --> A''            
     e( 45 - 45) =     15.49030  eV     1   --> A'             
     e( 46 - 46) =     15.49069  eV     1   --> A''            
     e( 47 - 47) =     15.50970  eV     1   --> A'             
     e( 48 - 48) =     15.58636  eV     1   --> A'             
     e( 49 - 49) =     15.58690  eV     1   --> A''            
     e( 50 - 50) =     15.61560  eV     1   --> A''            
     e( 51 - 51) =     16.31952  eV     1   --> A'             
     e( 52 - 52) =     16.35344  eV     1   --> A''            
     e( 53 - 53) =     16.58212  eV     1   --> A'             
     e( 54 - 54) =     17.16185  eV     1   --> A'             
     e( 55 - 55) =     17.21157  eV     1   --> A''            
     e( 56 - 56) =     17.26277  eV     1   --> A'             
     e( 57 - 57) =     18.31170  eV     1   --> A''            
     e( 58 - 58) =     18.31864  eV     1   --> A'             
     e( 59 - 59) =     18.39110  eV     1   --> A'             
     e( 60 - 60) =     18.78141  eV     1   --> A'             
     e( 61 - 61) =     18.81325  eV     1   --> A''            
     e( 62 - 62) =     18.97377  eV     1   --> A''            
     e( 63 - 63) =     18.97800  eV     1   --> A'             
     e( 64 - 64) =     19.14544  eV     1   --> A''            

 **************************************************************************

 **************************************************************************

                    xk=(   0.00000,   0.00000,   0.00000  )

     point group T_d (-43m) 
     there are  5 classes
     the character table:

       E     8C3   3C2   6S4   6s_d 
A_1    1.00  1.00  1.00  1.00  1.00
A_2    1.00  1.00  1.00 -1.00 -1.00
E      2.00 -1.00  2.00  0.00  0.00
T_1    3.00  0.00 -1.00  1.00 -1.00
T_2    3.00  0.00 -1.00 -1.00  1.00

     the symmetry operations in each class and the name of the first element:

     E        1
                                                                 
     8C3      5    7    8    6   12    9   10   11
                                                                 
     3C2      2    3    4
                                                                 
     6S4     15   16   20   19   23   24
                                                                 
     6s_d    13   14   17   18   21   22
                                                                 

     Band symmetry, T_d (-43m)  point group:

     e(  1 -  3) =     -8.87589  eV     3   --> T_2  G_15 P_4  
     e(  4 -  6) =     -8.79613  eV     3   --> T_2  G_15 P_4  
     e(  7 -  9) =     -8.76875  eV     3   --> T_1  G_25 P_5  
     e( 10 - 10) =     -8.76228  eV     1   --> A_1  G_1  P_1  
     e( 11 - 12) =     -8.75455  eV     2   --> E    G_12 P_3  
     e( 13 - 14) =     -8.73630  eV     2   --> E    G_12 P_3  
     e( 15 - 15) =     -8.73154  eV     1   --> A_2  G_2  P_2  
     e( 16 - 16) =     -6.49490  eV     1   --> A_1  G_1  P_1  
     e( 17 - 19) =     -4.31012  eV     3   --> T_2  G_15 P_4  
     e( 20 - 21) =     -0.80897  eV     2   --> E    G_12 P_3  
     e( 22 - 22) =     -0.06677  eV     1   --> A_1  G_1  P_1  
     e( 23 - 25) =      3.30209  eV     3   --> T_1  G_25 P_5  
     e( 26 - 28) =      3.30854  eV     3   --> T_2  G_15 P_4  
     e( 29 - 31) =      5.73282  eV     3   --> T_2  G_15 P_4  
     e( 32 - 32) =      6.20118  eV     1   --> A_1  G_1  P_1  
     e( 33 - 35) =      7.28972  eV     3   --> T_2  G_15 P_4  
     e( 36 - 37) =      7.32181  eV     2   --> E    G_12 P_3  
     e( 38 - 38) =      8.09737  eV     1   --> A_1  G_1  P_1  
     e( 39 - 41) =      9.54034  eV     3   --> T_2  G_15 P_4  
     e( 42 - 42) =     13.47921  eV     1   --> A_1  G_1  P_1  
     e( 43 - 44) =     15.54360  eV     2   --> E    G_12 P_3  
     e( 45 - 47) =     15.56457  eV     3   --> T_2  G_15 P_4  
     e( 48 - 50) =     15.64892  eV     3   --> T_1  G_25 P_5  
     e( 51 - 52) =     16.34884  eV     2   --> E    G_12 P_3  
     e( 53 - 53) =     16.69241  eV     1   --> A_1  G_1  P_1  
     e( 54 - 56) =     17.16351  eV     3   --> T_2  G_15 P_4  
     e( 57 - 59) =     18.38116  eV     3   --> T_2  G_15 P_4  
     e( 60 - 62) =     18.86265  eV     3   --> T_2  G_15 P_4  
     e( 63 - 64) =     19.11454  eV     2   -->   ?

 **************************************************************************

     BANDS        :   1m 2.06s CPU     36.08s WALL


   This run was terminated on:   6:54:48  16Dec2024            

=------------------------------------------------------------------------------=
   JOB DONE.
=------------------------------------------------------------------------------=
