
     Program BANDS v.7.0 starts on 16Dec2024 at  6:55:55 

     This program is part of the open-source Quantum ESPRESSO suite
     for quantum simulation of materials; please cite
         "P. Giannozzi et al., J. Phys.:Condens. Matter 21 395502 (2009);
         "P. Giannozzi et al., J. Phys.:Condens. Matter 29 465901 (2017);
         "P. Giannozzi et al., J. Chem. Phys. 152 154105 (2020);
          URL http://www.quantum-espresso.org", 
     in publications or presentations arising from this work. More details at
     http://www.quantum-espresso.org/quote

     Parallel version (MPI & OpenMP), running on       2 processor cores
     Number of MPI processes:                 1
     Threads/MPI process:                     2

     MPI processes distributed on     1 nodes
     626 MiB available memory on the printing compute node when the environment starts


     Reading xml data from directory:

     ./outputs/gaalas50.save/
     file Ga.pbe-dn-kjpaw_psl.1.0.0.UPF: wavefunction(s)  4S renormalized
     file Al.pbe-n-kjpaw_psl.1.0.0.UPF: wavefunction(s)  3S 3P renormalized

     IMPORTANT: XC functional enforced from input :
     Exchange-correlation= PBE
                           (   1   4   3   4   0   0   0)
     Any further DFT definition will be discarded
     Please, verify this is what you really want


     G-vector sticks info
     --------------------
     sticks:   dense  smooth     PW     G-vecs:    dense   smooth      PW
     Sum        1489    1489    437                43819    43819    6979

     Using Slab Decomposition


     Check: negative core charge=   -0.000002
     Reading collected, re-writing distributed wavefunctions
     high-symmetry point:  0.0000 0.0000 0.0000   x coordinate   0.0000
     high-symmetry point:  0.5000 0.0000 0.5000   x coordinate   0.7071
     high-symmetry point:  0.5000 0.2500 0.7500   x coordinate   1.0607
     high-symmetry point:  0.3750 0.3750 0.7400   x coordinate   1.2377
     high-symmetry point:  0.0000 0.0000 0.0000   x coordinate   1.2377

     Plottable bands (eV) written to file gaalasbands50.dat.gnu
     Bands written to file gaalasbands50.dat

 **************************************************************************

                    xk=(   0.00000,   0.00000,   0.00000  )

     point group D_2d (-42m)
     there are  5 classes
     the character table:

       E     2S4   C2    2C2'  2s_d 
A_1    1.00  1.00  1.00  1.00  1.00
A_2    1.00  1.00  1.00 -1.00 -1.00
B_1    1.00 -1.00  1.00  1.00 -1.00
B_2    1.00 -1.00  1.00 -1.00  1.00
E      2.00  0.00 -2.00  0.00  0.00

     the symmetry operations in each class and the name of the first element:

     E        1
                                                                 
     2S4      7    8
                                                                 
     C2       4
                                                                 
     2C2'     2    3
                                                                 
     2s_d     5    6
                                                                 

     Band symmetry, D_2d (-42m) point group:

     e(  1 -  1) =     -9.19866  eV     1   --> B_2  X_3  W_2  
     e(  2 -  3) =     -9.17937  eV     2   --> E    X_5  W_3  
     e(  4 -  5) =     -9.13197  eV     2   --> E    X_5  W_3  
     e(  6 -  6) =     -9.11050  eV     1   --> B_2  X_3  W_2  
     e(  7 -  7) =     -9.09613  eV     1   --> B_1  X_2  W_1' 
     e(  8 -  8) =     -9.09541  eV     1   --> A_1  X_1  W_1  
     e(  9 -  9) =     -9.08149  eV     1   --> A_1  X_1  W_1  
     e( 10 - 10) =     -9.07786  eV     1   --> B_1  X_2  W_1' 
     e( 11 - 11) =     -6.72385  eV     1   --> A_1  X_1  W_1  
     e( 12 - 12) =     -4.65791  eV     1   --> B_2  X_3  W_2  
     e( 13 - 14) =     -4.65594  eV     2   --> E    X_5  W_3  
     e( 15 - 15) =     -1.14820  eV     1   --> A_1  X_1  W_1  
     e( 16 - 16) =     -0.66412  eV     1   --> A_1  X_1  W_1  
     e( 17 - 17) =     -0.13896  eV     1   --> B_1  X_2  W_1' 
     e( 18 - 18) =      2.98683  eV     1   --> B_2  X_3  W_2  
     e( 19 - 20) =      2.99333  eV     2   --> E    X_5  W_3  
     e( 21 - 22) =      2.99377  eV     2   --> E    X_5  W_3  
     e( 23 - 23) =      3.00446  eV     1   --> A_2  X_4  W_2' 
     e( 24 - 24) =      5.26809  eV     1   --> B_2  X_3  W_2  
     e( 25 - 26) =      5.30884  eV     2   --> E    X_5  W_3  
     e( 27 - 27) =      6.10162  eV     1   --> A_1  X_1  W_1  
     e( 28 - 28) =      6.81360  eV     1   --> A_1  X_1  W_1  
     e( 29 - 30) =      6.82770  eV     2   --> E    X_5  W_3  
     e( 31 - 31) =      6.88498  eV     1   --> B_2  X_3  W_2  
     e( 32 - 32) =      7.40415  eV     1   --> A_1  X_1  W_1  
     e( 33 - 33) =      7.73923  eV     1   --> B_1  X_2  W_1' 
     e( 34 - 35) =      9.24013  eV     2   --> E    X_5  W_3  
     e( 36 - 36) =      9.24167  eV     1   --> B_2  X_3  W_2  
     e( 37 - 37) =     13.34133  eV     1   --> A_1  X_1  W_1  
     e( 38 - 38) =     14.67806  eV     1   --> B_1  X_2  W_1' 
     e( 39 - 39) =     14.85769  eV     1   --> A_1  X_1  W_1  
     e( 40 - 40) =     15.09483  eV     1   --> A_2  X_4  W_2' 
     e( 41 - 42) =     15.24245  eV     2   --> E    X_5  W_3  
     e( 43 - 44) =     15.25171  eV     2   --> E    X_5  W_3  
     e( 45 - 45) =     15.33171  eV     1   --> B_2  X_3  W_2  
     e( 46 - 46) =     15.94049  eV     1   --> A_1  X_1  W_1  
     e( 47 - 47) =     16.26691  eV     1   --> A_1  X_1  W_1  
     e( 48 - 48) =     16.41064  eV     1   --> B_1  X_2  W_1' 
     e( 49 - 50) =     16.67018  eV     2   --> E    X_5  W_3  
     e( 51 - 51) =     16.69952  eV     1   --> B_2  X_3  W_2  
     e( 52 - 52) =     17.51308  eV     1   --> A_2  X_4  W_2' 
     e( 53 - 54) =     17.80304  eV     2   --> E    X_5  W_3  
     e( 55 - 55) =     18.28514  eV     1   --> B_2  X_3  W_2  
     e( 56 - 57) =     18.29215  eV     2   --> E    X_5  W_3  
     e( 58 - 59) =     18.59743  eV     2   --> E    X_5  W_3  
     e( 60 - 60) =     18.75585  eV     1   --> B_1  X_2  W_1' 
     e( 61 - 61) =     18.78056  eV     1   --> A_2  X_4  W_2' 
     e( 62 - 63) =     18.78177  eV     2   --> E    X_5  W_3  
     e( 64 - 64) =     18.92926  eV     1   --> B_2  X_3  W_2  

 **************************************************************************

 **************************************************************************

                    xk=(   0.02500,   0.00000,   0.02500  )

     point group C_1 (1)    
     there are  1 classes
     the character table:

       E    
A      1.00

     the symmetry operations in each class and the name of the first element:

     E        1
                                                                 

     Band symmetry, C_1 (1)     point group:

     e(  1 -  1) =     -9.19867  eV     1   --> A              
     e(  2 -  3) =     -9.17937  eV     2   -->   2 A              
     e(  4 -  5) =     -9.13209  eV     2   -->   2 A              
     e(  6 -  6) =     -9.11058  eV     1   --> A              
     e(  7 -  7) =     -9.09609  eV     1   --> A              
     e(  8 -  8) =     -9.09545  eV     1   --> A              
     e(  9 -  9) =     -9.08150  eV     1   --> A              
     e( 10 - 10) =     -9.07792  eV     1   --> A              
     e( 11 - 11) =     -6.71966  eV     1   --> A              
     e( 12 - 12) =     -4.66333  eV     1   --> A              
     e( 13 - 13) =     -4.66146  eV     1   --> A              
     e( 14 - 14) =     -4.65549  eV     1   --> A              
     e( 15 - 15) =     -1.14191  eV     1   --> A              
     e( 16 - 16) =     -0.65500  eV     1   --> A              
     e( 17 - 17) =     -0.13331  eV     1   --> A              
     e( 18 - 18) =      2.96621  eV     1   --> A              
     e( 19 - 19) =      2.98881  eV     1   --> A              
     e( 20 - 20) =      2.98919  eV     1   --> A              
     e( 21 - 21) =      2.99080  eV     1   --> A              
     e( 22 - 22) =      2.99164  eV     1   --> A              
     e( 23 - 23) =      3.00368  eV     1   --> A              
     e( 24 - 24) =      5.18164  eV     1   --> A              
     e( 25 - 25) =      5.28940  eV     1   --> A              
     e( 26 - 26) =      5.29454  eV     1   --> A              
     e( 27 - 27) =      6.18739  eV     1   --> A              
     e( 28 - 28) =      6.80640  eV     1   --> A              
     e( 29 - 29) =      6.84897  eV     1   --> A              
     e( 30 - 30) =      6.87314  eV     1   --> A              
     e( 31 - 31) =      6.90147  eV     1   --> A              
     e( 32 - 32) =      7.42227  eV     1   --> A              
     e( 33 - 33) =      7.75815  eV     1   --> A              
     e( 34 - 34) =      9.23920  eV     1   --> A              
     e( 35 - 35) =      9.24515  eV     1   --> A              
     e( 36 - 36) =      9.25980  eV     1   --> A              
     e( 37 - 37) =     13.36730  eV     1   --> A              
     e( 38 - 38) =     14.64770  eV     1   --> A              
     e( 39 - 39) =     14.80871  eV     1   --> A              
     e( 40 - 40) =     15.06356  eV     1   --> A              
     e( 41 - 41) =     15.18590  eV     1   --> A              
     e( 42 - 42) =     15.19805  eV     1   --> A              
     e( 43 - 43) =     15.19865  eV     1   --> A              
     e( 44 - 44) =     15.22529  eV     1   --> A              
     e( 45 - 45) =     15.28008  eV     1   --> A              
     e( 46 - 46) =     15.94804  eV     1   --> A              
     e( 47 - 47) =     16.20299  eV     1   --> A              
     e( 48 - 48) =     16.33232  eV     1   --> A              
     e( 49 - 49) =     16.67970  eV     1   --> A              
     e( 50 - 50) =     16.69277  eV     1   --> A              
     e( 51 - 51) =     16.75977  eV     1   --> A              
     e( 52 - 52) =     17.49605  eV     1   --> A              
     e( 53 - 53) =     17.78983  eV     1   --> A              
     e( 54 - 54) =     17.81132  eV     1   --> A              
     e( 55 - 55) =     18.13586  eV     1   --> A              
     e( 56 - 56) =     18.31526  eV     1   --> A              
     e( 57 - 57) =     18.45305  eV     1   --> A              
     e( 58 - 58) =     18.53496  eV     1   --> A              
     e( 59 - 59) =     18.59345  eV     1   --> A              
     e( 60 - 60) =     18.69230  eV     1   --> A              
     e( 61 - 61) =     18.80619  eV     1   --> A              
     e( 62 - 62) =     18.84254  eV     1   --> A              
     e( 63 - 63) =     18.97386  eV     1   --> A              
     e( 64 - 64) =     19.04051  eV     1   --> A              

 **************************************************************************

 **************************************************************************

                    xk=(   0.05000,   0.00000,   0.05000  )

     Band symmetry, C_1 (1)     point group:

     e(  1 -  1) =     -9.19859  eV     1   --> A              
     e(  2 -  2) =     -9.17943  eV     1   --> A              
     e(  3 -  3) =     -9.17917  eV     1   --> A              
     e(  4 -  4) =     -9.13241  eV     1   --> A              
     e(  5 -  5) =     -9.13211  eV     1   --> A              
     e(  6 -  6) =     -9.11082  eV     1   --> A              
     e(  7 -  7) =     -9.09600  eV     1   --> A              
     e(  8 -  8) =     -9.09539  eV     1   --> A              
     e(  9 -  9) =     -9.08155  eV     1   --> A              
     e( 10 - 10) =     -9.07803  eV     1   --> A              
     e( 11 - 11) =     -6.70709  eV     1   --> A              
     e( 12 - 12) =     -4.67909  eV     1   --> A              
     e( 13 - 13) =     -4.67775  eV     1   --> A              
     e( 14 - 14) =     -4.65431  eV     1   --> A              
     e( 15 - 15) =     -1.12348  eV     1   --> A              
     e( 16 - 16) =     -0.62788  eV     1   --> A              
     e( 17 - 17) =     -0.11650  eV     1   --> A              
     e( 18 - 18) =      2.89330  eV     1   --> A              
     e( 19 - 19) =      2.97665  eV     1   --> A              
     e( 20 - 20) =      2.97805  eV     1   --> A              
     e( 21 - 21) =      2.98432  eV     1   --> A              
     e( 22 - 22) =      2.98514  eV     1   --> A              
     e( 23 - 23) =      3.01297  eV     1   --> A              
     e( 24 - 24) =      4.95082  eV     1   --> A              
     e( 25 - 25) =      5.25258  eV     1   --> A              
     e( 26 - 26) =      5.28263  eV     1   --> A              
     e( 27 - 27) =      6.36733  eV     1   --> A              
     e( 28 - 28) =      6.81758  eV     1   --> A              
     e( 29 - 29) =      6.90051  eV     1   --> A              
     e( 30 - 30) =      6.95336  eV     1   --> A              
     e( 31 - 31) =      6.98266  eV     1   --> A              
     e( 32 - 32) =      7.47804  eV     1   --> A              
     e( 33 - 33) =      7.81608  eV     1   --> A              
     e( 34 - 34) =      9.23565  eV     1   --> A              
     e( 35 - 35) =      9.25789  eV     1   --> A              
     e( 36 - 36) =      9.31917  eV     1   --> A              
     e( 37 - 37) =     13.44342  eV     1   --> A              
     e( 38 - 38) =     14.55252  eV     1   --> A              
     e( 39 - 39) =     14.70724  eV     1   --> A              
     e( 40 - 40) =     14.97304  eV     1   --> A              
     e( 41 - 41) =     14.98823  eV     1   --> A              
     e( 42 - 42) =     15.02785  eV     1   --> A              
     e( 43 - 43) =     15.07487  eV     1   --> A              
     e( 44 - 44) =     15.15476  eV     1   --> A              
     e( 45 - 45) =     15.17424  eV     1   --> A              
     e( 46 - 46) =     15.94852  eV     1   --> A              
     e( 47 - 47) =     16.08433  eV     1   --> A              
     e( 48 - 48) =     16.14636  eV     1   --> A              
     e( 49 - 49) =     16.69882  eV     1   --> A              
     e( 50 - 50) =     16.72355  eV     1   --> A              
     e( 51 - 51) =     16.93082  eV     1   --> A              
     e( 52 - 52) =     17.39394  eV     1   --> A              
     e( 53 - 53) =     17.76528  eV     1   --> A              
     e( 54 - 54) =     17.86931  eV     1   --> A              
     e( 55 - 55) =     18.01558  eV     1   --> A              
     e( 56 - 56) =     18.36458  eV     1   --> A              
     e( 57 - 57) =     18.45829  eV     1   --> A              
     e( 58 - 58) =     18.54472  eV     1   --> A              
     e( 59 - 59) =     18.58114  eV     1   --> A              
     e( 60 - 60) =     18.75683  eV     1   --> A              
     e( 61 - 61) =     18.92430  eV     1   --> A              
     e( 62 - 62) =     19.03510  eV     1   --> A              
     e( 63 - 63) =     19.20029  eV     1   --> A              
     e( 64 - 64) =     19.33155  eV     1   --> A              

 **************************************************************************

 **************************************************************************

                    xk=(   0.07500,   0.00000,   0.07500  )

     Band symmetry, C_1 (1)     point group:

     e(  1 -  1) =     -9.19841  eV     1   --> A              
     e(  2 -  2) =     -9.17947  eV     1   --> A              
     e(  3 -  3) =     -9.17895  eV     1   --> A              
     e(  4 -  4) =     -9.13292  eV     1   --> A              
     e(  5 -  5) =     -9.13217  eV     1   --> A              
     e(  6 -  6) =     -9.11125  eV     1   --> A              
     e(  7 -  7) =     -9.09584  eV     1   --> A              
     e(  8 -  8) =     -9.09523  eV     1   --> A              
     e(  9 -  9) =     -9.08162  eV     1   --> A              
     e( 10 - 10) =     -9.07814  eV     1   --> A              
     e( 11 - 11) =     -6.68619  eV     1   --> A              
     e( 12 - 12) =     -4.70439  eV     1   --> A              
     e( 13 - 13) =     -4.70406  eV     1   --> A              
     e( 14 - 14) =     -4.65254  eV     1   --> A              
     e( 15 - 15) =     -1.09413  eV     1   --> A              
     e( 16 - 16) =     -0.58414  eV     1   --> A              
     e( 17 - 17) =     -0.08885  eV     1   --> A              
     e( 18 - 18) =      2.78151  eV     1   --> A              
     e( 19 - 19) =      2.95543  eV     1   --> A              
     e( 20 - 20) =      2.95761  eV     1   --> A              
     e( 21 - 21) =      2.97642  eV     1   --> A              
     e( 22 - 22) =      2.97731  eV     1   --> A              
     e( 23 - 23) =      3.03181  eV     1   --> A              
     e( 24 - 24) =      4.66892  eV     1   --> A              
     e( 25 - 25) =      5.18610  eV     1   --> A              
     e( 26 - 26) =      5.27459  eV     1   --> A              
     e( 27 - 27) =      6.56005  eV     1   --> A              
     e( 28 - 28) =      6.84831  eV     1   --> A              
     e( 29 - 29) =      6.97451  eV     1   --> A              
     e( 30 - 30) =      7.04182  eV     1   --> A              
     e( 31 - 31) =      7.14688  eV     1   --> A              
     e( 32 - 32) =      7.56817  eV     1   --> A              
     e( 33 - 33) =      7.91819  eV     1   --> A              
     e( 34 - 34) =      9.23257  eV     1   --> A              
     e( 35 - 35) =      9.27927  eV     1   --> A              
     e( 36 - 36) =      9.41832  eV     1   --> A              
     e( 37 - 37) =     13.56399  eV     1   --> A              
     e( 38 - 38) =     14.39195  eV     1   --> A              
     e( 39 - 39) =     14.58257  eV     1   --> A              
     e( 40 - 40) =     14.66717  eV     1   --> A              
     e( 41 - 41) =     14.75636  eV     1   --> A              
     e( 42 - 42) =     14.83450  eV     1   --> A              
     e( 43 - 43) =     14.89605  eV     1   --> A              
     e( 44 - 44) =     15.03768  eV     1   --> A              
     e( 45 - 45) =     15.05314  eV     1   --> A              
     e( 46 - 46) =     15.84897  eV     1   --> A              
     e( 47 - 47) =     15.98106  eV     1   --> A              
     e( 48 - 48) =     15.98166  eV     1   --> A              
     e( 49 - 49) =     16.69671  eV     1   --> A              
     e( 50 - 50) =     16.77448  eV     1   --> A              
     e( 51 - 51) =     17.16212  eV     1   --> A              
     e( 52 - 52) =     17.20584  eV     1   --> A              
     e( 53 - 53) =     17.75137  eV     1   --> A              
     e( 54 - 54) =     17.93507  eV     1   --> A              
     e( 55 - 55) =     17.96304  eV     1   --> A              
     e( 56 - 56) =     18.35617  eV     1   --> A              
     e( 57 - 57) =     18.39572  eV     1   --> A              
     e( 58 - 58) =     18.57062  eV     1   --> A              
     e( 59 - 59) =     18.68962  eV     1   --> A              
     e( 60 - 60) =     18.91523  eV     1   --> A              
     e( 61 - 61) =     19.13366  eV     1   --> A              
     e( 62 - 62) =     19.27242  eV     1   --> A              
     e( 63 - 63) =     19.46221  eV     1   --> A              
     e( 64 - 64) =     19.70514  eV     1   --> A              

 **************************************************************************

 **************************************************************************

                    xk=(   0.10000,   0.00000,   0.10000  )

     Band symmetry, C_1 (1)     point group:

     e(  1 -  1) =     -9.19820  eV     1   --> A              
     e(  2 -  2) =     -9.17955  eV     1   --> A              
     e(  3 -  3) =     -9.17864  eV     1   --> A              
     e(  4 -  4) =     -9.13362  eV     1   --> A              
     e(  5 -  5) =     -9.13226  eV     1   --> A              
     e(  6 -  6) =     -9.11182  eV     1   --> A              
     e(  7 -  7) =     -9.09562  eV     1   --> A              
     e(  8 -  8) =     -9.09502  eV     1   --> A              
     e(  9 -  9) =     -9.08173  eV     1   --> A              
     e( 10 - 10) =     -9.07833  eV     1   --> A              
     e( 11 - 11) =     -6.65708  eV     1   --> A              
     e( 12 - 12) =     -4.73912  eV     1   --> A              
     e( 13 - 13) =     -4.73818  eV     1   --> A              
     e( 14 - 14) =     -4.65080  eV     1   --> A              
     e( 15 - 15) =     -1.05571  eV     1   --> A              
     e( 16 - 16) =     -0.52607  eV     1   --> A              
     e( 17 - 17) =     -0.05116  eV     1   --> A              
     e( 18 - 18) =      2.64437  eV     1   --> A              
     e( 19 - 19) =      2.92570  eV     1   --> A              
     e( 20 - 20) =      2.92851  eV     1   --> A              
     e( 21 - 21) =      2.97012  eV     1   --> A              
     e( 22 - 22) =      2.97127  eV     1   --> A              
     e( 23 - 23) =      3.05872  eV     1   --> A              
     e( 24 - 24) =      4.36837  eV     1   --> A              
     e( 25 - 25) =      5.09464  eV     1   --> A              
     e( 26 - 26) =      5.26248  eV     1   --> A              
     e( 27 - 27) =      6.73863  eV     1   --> A              
     e( 28 - 28) =      6.89525  eV     1   --> A              
     e( 29 - 29) =      7.06972  eV     1   --> A              
     e( 30 - 30) =      7.16387  eV     1   --> A              
     e( 31 - 31) =      7.34722  eV     1   --> A              
     e( 32 - 32) =      7.68663  eV     1   --> A              
     e( 33 - 33) =      8.07117  eV     1   --> A              
     e( 34 - 34) =      9.23325  eV     1   --> A              
     e( 35 - 35) =      9.30902  eV     1   --> A              
     e( 36 - 36) =      9.55561  eV     1   --> A              
     e( 37 - 37) =     13.71547  eV     1   --> A              
     e( 38 - 38) =     14.19211  eV     1   --> A              
     e( 39 - 39) =     14.27015  eV     1   --> A              
     e( 40 - 40) =     14.31455  eV     1   --> A              
     e( 41 - 41) =     14.54563  eV     1   --> A              
     e( 42 - 42) =     14.64452  eV     1   --> A              
     e( 43 - 43) =     14.69140  eV     1   --> A              
     e( 44 - 44) =     14.87704  eV     1   --> A              
     e( 45 - 45) =     14.92922  eV     1   --> A              
     e( 46 - 46) =     15.58976  eV     1   --> A              
     e( 47 - 47) =     15.89436  eV     1   --> A              
     e( 48 - 48) =     15.91667  eV     1   --> A              
     e( 49 - 49) =     16.67987  eV     1   --> A              
     e( 50 - 50) =     16.84701  eV     1   --> A              
     e( 51 - 51) =     16.97320  eV     1   --> A              
     e( 52 - 52) =     17.37895  eV     1   --> A              
     e( 53 - 53) =     17.71372  eV     1   --> A              
     e( 54 - 54) =     17.92075  eV     1   --> A              
     e( 55 - 55) =     18.08652  eV     1   --> A              
     e( 56 - 56) =     18.27021  eV     1   --> A              
     e( 57 - 57) =     18.41054  eV     1   --> A              
     e( 58 - 58) =     18.67640  eV     1   --> A              
     e( 59 - 59) =     18.82709  eV     1   --> A              
     e( 60 - 60) =     19.09922  eV     1   --> A              
     e( 61 - 61) =     19.35860  eV     1   --> A              
     e( 62 - 62) =     19.53074  eV     1   --> A              
     e( 63 - 63) =     19.76998  eV     1   --> A              
     e( 64 - 64) =     20.09240  eV     1   --> A              

 **************************************************************************

 **************************************************************************

                    xk=(   0.12500,   0.00000,   0.12500  )

     Band symmetry, C_1 (1)     point group:

     e(  1 -  1) =     -9.19786  eV     1   --> A              
     e(  2 -  2) =     -9.17965  eV     1   --> A              
     e(  3 -  3) =     -9.17817  eV     1   --> A              
     e(  4 -  4) =     -9.13445  eV     1   --> A              
     e(  5 -  5) =     -9.13238  eV     1   --> A              
     e(  6 -  6) =     -9.11248  eV     1   --> A              
     e(  7 -  7) =     -9.09532  eV     1   --> A              
     e(  8 -  8) =     -9.09473  eV     1   --> A              
     e(  9 -  9) =     -9.08187  eV     1   --> A              
     e( 10 - 10) =     -9.07855  eV     1   --> A              
     e( 11 - 11) =     -6.61990  eV     1   --> A              
     e( 12 - 12) =     -4.78120  eV     1   --> A              
     e( 13 - 13) =     -4.77871  eV     1   --> A              
     e( 14 - 14) =     -4.64966  eV     1   --> A              
     e( 15 - 15) =     -1.01037  eV     1   --> A              
     e( 16 - 16) =     -0.45646  eV     1   --> A              
     e( 17 - 17) =     -0.00447  eV     1   --> A              
     e( 18 - 18) =      2.49441  eV     1   --> A              
     e( 19 - 19) =      2.88825  eV     1   --> A              
     e( 20 - 20) =      2.89184  eV     1   --> A              
     e( 21 - 21) =      2.96892  eV     1   --> A              
     e( 22 - 22) =      2.97054  eV     1   --> A              
     e( 23 - 23) =      3.09336  eV     1   --> A              
     e( 24 - 24) =      4.06174  eV     1   --> A              
     e( 25 - 25) =      4.98030  eV     1   --> A              
     e( 26 - 26) =      5.24739  eV     1   --> A              
     e( 27 - 27) =      6.90298  eV     1   --> A              
     e( 28 - 28) =      6.95438  eV     1   --> A              
     e( 29 - 29) =      7.18703  eV     1   --> A              
     e( 30 - 30) =      7.31183  eV     1   --> A              
     e( 31 - 31) =      7.56472  eV     1   --> A              
     e( 32 - 32) =      7.82797  eV     1   --> A              
     e( 33 - 33) =      8.28275  eV     1   --> A              
     e( 34 - 34) =      9.24117  eV     1   --> A              
     e( 35 - 35) =      9.34755  eV     1   --> A              
     e( 36 - 36) =      9.72696  eV     1   --> A              
     e( 37 - 37) =     13.77233  eV     1   --> A              
     e( 38 - 38) =     13.82821  eV     1   --> A              
     e( 39 - 39) =     13.97288  eV     1   --> A              
     e( 40 - 40) =     14.04064  eV     1   --> A              
     e( 41 - 41) =     14.41691  eV     1   --> A              
     e( 42 - 42) =     14.42903  eV     1   --> A              
     e( 43 - 43) =     14.47355  eV     1   --> A              
     e( 44 - 44) =     14.70167  eV     1   --> A              
     e( 45 - 45) =     14.79131  eV     1   --> A              
     e( 46 - 46) =     15.29921  eV     1   --> A              
     e( 47 - 47) =     15.80674  eV     1   --> A              
     e( 48 - 48) =     15.83626  eV     1   --> A              
     e( 49 - 49) =     16.66412  eV     1   --> A              
     e( 50 - 50) =     16.72156  eV     1   --> A              
     e( 51 - 51) =     16.93593  eV     1   --> A              
     e( 52 - 52) =     17.47102  eV     1   --> A              
     e( 53 - 53) =     17.62537  eV     1   --> A              
     e( 54 - 54) =     18.04441  eV     1   --> A              
     e( 55 - 55) =     18.17208  eV     1   --> A              
     e( 56 - 56) =     18.31134  eV     1   --> A              
     e( 57 - 57) =     18.46001  eV     1   --> A              
     e( 58 - 58) =     18.81900  eV     1   --> A              
     e( 59 - 59) =     18.99152  eV     1   --> A              
     e( 60 - 60) =     19.28632  eV     1   --> A              
     e( 61 - 61) =     19.56649  eV     1   --> A              
     e( 62 - 62) =     19.80317  eV     1   --> A              
     e( 63 - 63) =     20.10199  eV     1   --> A              
     e( 64 - 64) =     20.44411  eV     1   --> A              

 **************************************************************************

 **************************************************************************

                    xk=(   0.15000,   0.00000,   0.15000  )

     Band symmetry, C_1 (1)     point group:

     e(  1 -  1) =     -9.19743  eV     1   --> A              
     e(  2 -  2) =     -9.17977  eV     1   --> A              
     e(  3 -  3) =     -9.17755  eV     1   --> A              
     e(  4 -  4) =     -9.13538  eV     1   --> A              
     e(  5 -  5) =     -9.13245  eV     1   --> A              
     e(  6 -  6) =     -9.11322  eV     1   --> A              
     e(  7 -  7) =     -9.09496  eV     1   --> A              
     e(  8 -  8) =     -9.09439  eV     1   --> A              
     e(  9 -  9) =     -9.08198  eV     1   --> A              
     e( 10 - 10) =     -9.07880  eV     1   --> A              
     e( 11 - 11) =     -6.57484  eV     1   --> A              
     e( 12 - 12) =     -4.82872  eV     1   --> A              
     e( 13 - 13) =     -4.82447  eV     1   --> A              
     e( 14 - 14) =     -4.64987  eV     1   --> A              
     e( 15 - 15) =     -0.96031  eV     1   --> A              
     e( 16 - 16) =     -0.37878  eV     1   --> A              
     e( 17 - 17) =      0.04956  eV     1   --> A              
     e( 18 - 18) =      2.34247  eV     1   --> A              
     e( 19 - 19) =      2.84441  eV     1   --> A              
     e( 20 - 20) =      2.84898  eV     1   --> A              
     e( 21 - 21) =      2.97609  eV     1   --> A              
     e( 22 - 22) =      2.97874  eV     1   --> A              
     e( 23 - 23) =      3.13546  eV     1   --> A              
     e( 24 - 24) =      3.75592  eV     1   --> A              
     e( 25 - 25) =      4.84688  eV     1   --> A              
     e( 26 - 26) =      5.22779  eV     1   --> A              
     e( 27 - 27) =      7.02265  eV     1   --> A              
     e( 28 - 28) =      7.06116  eV     1   --> A              
     e( 29 - 29) =      7.32688  eV     1   --> A              
     e( 30 - 30) =      7.47406  eV     1   --> A              
     e( 31 - 31) =      7.78576  eV     1   --> A              
     e( 32 - 32) =      7.98630  eV     1   --> A              
     e( 33 - 33) =      8.55505  eV     1   --> A              
     e( 34 - 34) =      9.25960  eV     1   --> A              
     e( 35 - 35) =      9.39466  eV     1   --> A              
     e( 36 - 36) =      9.92484  eV     1   --> A              
     e( 37 - 37) =     13.36401  eV     1   --> A              
     e( 38 - 38) =     13.38433  eV     1   --> A              
     e( 39 - 39) =     13.79792  eV     1   --> A              
     e( 40 - 40) =     14.12294  eV     1   --> A              
     e( 41 - 41) =     14.17546  eV     1   --> A              
     e( 42 - 42) =     14.23864  eV     1   --> A              
     e( 43 - 43) =     14.36416  eV     1   --> A              
     e( 44 - 44) =     14.51258  eV     1   --> A              
     e( 45 - 45) =     14.64503  eV     1   --> A              
     e( 46 - 46) =     15.00419  eV     1   --> A              
     e( 47 - 47) =     15.70761  eV     1   --> A              
     e( 48 - 48) =     15.72869  eV     1   --> A              
     e( 49 - 49) =     16.46323  eV     1   --> A              
     e( 50 - 50) =     16.65788  eV     1   --> A              
     e( 51 - 51) =     17.03300  eV     1   --> A              
     e( 52 - 52) =     17.45370  eV     1   --> A              
     e( 53 - 53) =     17.49378  eV     1   --> A              
     e( 54 - 54) =     18.19282  eV     1   --> A              
     e( 55 - 55) =     18.22765  eV     1   --> A              
     e( 56 - 56) =     18.49317  eV     1   --> A              
     e( 57 - 57) =     18.60621  eV     1   --> A              
     e( 58 - 58) =     18.97717  eV     1   --> A              
     e( 59 - 59) =     19.17850  eV     1   --> A              
     e( 60 - 60) =     19.46097  eV     1   --> A              
     e( 61 - 61) =     19.74783  eV     1   --> A              
     e( 62 - 62) =     20.08463  eV     1   --> A              
     e( 63 - 63) =     20.42684  eV     1   --> A              
     e( 64 - 64) =     20.71419  eV     1   --> A              

 **************************************************************************

 **************************************************************************

                    xk=(   0.17500,   0.00000,   0.17500  )

     Band symmetry, C_1 (1)     point group:

     e(  1 -  1) =     -9.19692  eV     1   --> A              
     e(  2 -  2) =     -9.17992  eV     1   --> A              
     e(  3 -  3) =     -9.17687  eV     1   --> A              
     e(  4 -  4) =     -9.13647  eV     1   --> A              
     e(  5 -  5) =     -9.13254  eV     1   --> A              
     e(  6 -  6) =     -9.11411  eV     1   --> A              
     e(  7 -  7) =     -9.09455  eV     1   --> A              
     e(  8 -  8) =     -9.09403  eV     1   --> A              
     e(  9 -  9) =     -9.08216  eV     1   --> A              
     e( 10 - 10) =     -9.07911  eV     1   --> A              
     e( 11 - 11) =     -6.52213  eV     1   --> A              
     e( 12 - 12) =     -4.88012  eV     1   --> A              
     e( 13 - 13) =     -4.87382  eV     1   --> A              
     e( 14 - 14) =     -4.65253  eV     1   --> A              
     e( 15 - 15) =     -0.90763  eV     1   --> A              
     e( 16 - 16) =     -0.29677  eV     1   --> A              
     e( 17 - 17) =      0.10861  eV     1   --> A              
     e( 18 - 18) =      2.19711  eV     1   --> A              
     e( 19 - 19) =      2.79525  eV     1   --> A              
     e( 20 - 20) =      2.80137  eV     1   --> A              
     e( 21 - 21) =      2.99385  eV     1   --> A              
     e( 22 - 22) =      2.99919  eV     1   --> A              
     e( 23 - 23) =      3.18472  eV     1   --> A              
     e( 24 - 24) =      3.45549  eV     1   --> A              
     e( 25 - 25) =      4.69561  eV     1   --> A              
     e( 26 - 26) =      5.20250  eV     1   --> A              
     e( 27 - 27) =      7.09676  eV     1   --> A              
     e( 28 - 28) =      7.21901  eV     1   --> A              
     e( 29 - 29) =      7.48829  eV     1   --> A              
     e( 30 - 30) =      7.64261  eV     1   --> A              
     e( 31 - 31) =      8.00582  eV     1   --> A              
     e( 32 - 32) =      8.15877  eV     1   --> A              
     e( 33 - 33) =      8.88057  eV     1   --> A              
     e( 34 - 34) =      9.29050  eV     1   --> A              
     e( 35 - 35) =      9.45028  eV     1   --> A              
     e( 36 - 36) =     10.13707  eV     1   --> A              
     e( 37 - 37) =     12.89164  eV     1   --> A              
     e( 38 - 38) =     12.92680  eV     1   --> A              
     e( 39 - 39) =     13.61273  eV     1   --> A              
     e( 40 - 40) =     13.93066  eV     1   --> A              
     e( 41 - 41) =     13.99019  eV     1   --> A              
     e( 42 - 42) =     14.12412  eV     1   --> A              
     e( 43 - 43) =     14.30540  eV     1   --> A              
     e( 44 - 44) =     14.47000  eV     1   --> A              
     e( 45 - 45) =     14.51106  eV     1   --> A              
     e( 46 - 46) =     14.71324  eV     1   --> A              
     e( 47 - 47) =     15.59227  eV     1   --> A              
     e( 48 - 48) =     15.59428  eV     1   --> A              
     e( 49 - 49) =     16.20504  eV     1   --> A              
     e( 50 - 50) =     16.66119  eV     1   --> A              
     e( 51 - 51) =     17.10301  eV     1   --> A              
     e( 52 - 52) =     17.33362  eV     1   --> A              
     e( 53 - 53) =     17.44430  eV     1   --> A              
     e( 54 - 54) =     18.22707  eV     1   --> A              
     e( 55 - 55) =     18.33780  eV     1   --> A              
     e( 56 - 56) =     18.69967  eV     1   --> A              
     e( 57 - 57) =     18.87377  eV     1   --> A              
     e( 58 - 58) =     19.13430  eV     1   --> A              
     e( 59 - 59) =     19.38481  eV     1   --> A              
     e( 60 - 60) =     19.60444  eV     1   --> A              
     e( 61 - 61) =     19.88790  eV     1   --> A              
     e( 62 - 62) =     20.35201  eV     1   --> A              
     e( 63 - 63) =     20.66178  eV     1   --> A              
     e( 64 - 64) =     20.86029  eV     1   --> A              

 **************************************************************************

 **************************************************************************

                    xk=(   0.20000,   0.00000,   0.20000  )

     Band symmetry, C_1 (1)     point group:

     e(  1 -  1) =     -9.19627  eV     1   --> A              
     e(  2 -  2) =     -9.18015  eV     1   --> A              
     e(  3 -  3) =     -9.17612  eV     1   --> A              
     e(  4 -  4) =     -9.13765  eV     1   --> A              
     e(  5 -  5) =     -9.13262  eV     1   --> A              
     e(  6 -  6) =     -9.11518  eV     1   --> A              
     e(  7 -  7) =     -9.09412  eV     1   --> A              
     e(  8 -  8) =     -9.09356  eV     1   --> A              
     e(  9 -  9) =     -9.08241  eV     1   --> A              
     e( 10 - 10) =     -9.07944  eV     1   --> A              
     e( 11 - 11) =     -6.46206  eV     1   --> A              
     e( 12 - 12) =     -4.93382  eV     1   --> A              
     e( 13 - 13) =     -4.92500  eV     1   --> A              
     e( 14 - 14) =     -4.65879  eV     1   --> A              
     e( 15 - 15) =     -0.85394  eV     1   --> A              
     e( 16 - 16) =     -0.21406  eV     1   --> A              
     e( 17 - 17) =      0.17005  eV     1   --> A              
     e( 18 - 18) =      2.06537  eV     1   --> A              
     e( 19 - 19) =      2.74161  eV     1   --> A              
     e( 20 - 20) =      2.75062  eV     1   --> A              
     e( 21 - 21) =      3.01420  eV     1   --> A              
     e( 22 - 22) =      3.03499  eV     1   --> A              
     e( 23 - 23) =      3.17623  eV     1   --> A              
     e( 24 - 24) =      3.24078  eV     1   --> A              
     e( 25 - 25) =      4.53009  eV     1   --> A              
     e( 26 - 26) =      5.17144  eV     1   --> A              
     e( 27 - 27) =      7.17545  eV     1   --> A              
     e( 28 - 28) =      7.37724  eV     1   --> A              
     e( 29 - 29) =      7.67015  eV     1   --> A              
     e( 30 - 30) =      7.81669  eV     1   --> A              
     e( 31 - 31) =      8.22681  eV     1   --> A              
     e( 32 - 32) =      8.34589  eV     1   --> A              
     e( 33 - 33) =      9.24615  eV     1   --> A              
     e( 34 - 34) =      9.33562  eV     1   --> A              
     e( 35 - 35) =      9.51451  eV     1   --> A              
     e( 36 - 36) =     10.34891  eV     1   --> A              
     e( 37 - 37) =     12.42035  eV     1   --> A              
     e( 38 - 38) =     12.46586  eV     1   --> A              
     e( 39 - 39) =     13.44826  eV     1   --> A              
     e( 40 - 40) =     13.68902  eV     1   --> A              
     e( 41 - 41) =     13.73329  eV     1   --> A              
     e( 42 - 42) =     14.03867  eV     1   --> A              
     e( 43 - 43) =     14.07451  eV     1   --> A              
     e( 44 - 44) =     14.35872  eV     1   --> A              
     e( 45 - 45) =     14.43545  eV     1   --> A              
     e( 46 - 46) =     14.71093  eV     1   --> A              
     e( 47 - 47) =     15.42875  eV     1   --> A              
     e( 48 - 48) =     15.47414  eV     1   --> A              
     e( 49 - 49) =     15.95224  eV     1   --> A              
     e( 50 - 50) =     16.66802  eV     1   --> A              
     e( 51 - 51) =     17.09709  eV     1   --> A              
     e( 52 - 52) =     17.15584  eV     1   --> A              
     e( 53 - 53) =     17.53530  eV     1   --> A              
     e( 54 - 54) =     18.26662  eV     1   --> A              
     e( 55 - 55) =     18.40078  eV     1   --> A              
     e( 56 - 56) =     18.90752  eV     1   --> A              
     e( 57 - 57) =     19.16162  eV     1   --> A              
     e( 58 - 58) =     19.27286  eV     1   --> A              
     e( 59 - 59) =     19.62836  eV     1   --> A              
     e( 60 - 60) =     19.69401  eV     1   --> A              
     e( 61 - 61) =     19.97223  eV     1   --> A              
     e( 62 - 62) =     20.46397  eV     1   --> A              
     e( 63 - 63) =     20.74992  eV     1   --> A              
     e( 64 - 64) =     20.78060  eV     1   --> A              

 **************************************************************************

 **************************************************************************

                    xk=(   0.22500,   0.00000,   0.22500  )

     Band symmetry, C_1 (1)     point group:

     e(  1 -  1) =     -9.19569  eV     1   --> A              
     e(  2 -  2) =     -9.18038  eV     1   --> A              
     e(  3 -  3) =     -9.17517  eV     1   --> A              
     e(  4 -  4) =     -9.13902  eV     1   --> A              
     e(  5 -  5) =     -9.13276  eV     1   --> A              
     e(  6 -  6) =     -9.11625  eV     1   --> A              
     e(  7 -  7) =     -9.09360  eV     1   --> A              
     e(  8 -  8) =     -9.09312  eV     1   --> A              
     e(  9 -  9) =     -9.08263  eV     1   --> A              
     e( 10 - 10) =     -9.07985  eV     1   --> A              
     e( 11 - 11) =     -6.39504  eV     1   --> A              
     e( 12 - 12) =     -4.98806  eV     1   --> A              
     e( 13 - 13) =     -4.97689  eV     1   --> A              
     e( 14 - 14) =     -4.66969  eV     1   --> A              
     e( 15 - 15) =     -0.80014  eV     1   --> A              
     e( 16 - 16) =     -0.13461  eV     1   --> A              
     e( 17 - 17) =      0.23119  eV     1   --> A              
     e( 18 - 18) =      1.95302  eV     1   --> A              
     e( 19 - 19) =      2.67896  eV     1   --> A              
     e( 20 - 20) =      2.69851  eV     1   --> A              
     e( 21 - 21) =      2.85852  eV     1   --> A              
     e( 22 - 22) =      3.08914  eV     1   --> A              
     e( 23 - 23) =      3.10463  eV     1   --> A              
     e( 24 - 24) =      3.30378  eV     1   --> A              
     e( 25 - 25) =      4.35248  eV     1   --> A              
     e( 26 - 26) =      5.13343  eV     1   --> A              
     e( 27 - 27) =      7.25879  eV     1   --> A              
     e( 28 - 28) =      7.53123  eV     1   --> A              
     e( 29 - 29) =      7.87249  eV     1   --> A              
     e( 30 - 30) =      7.99591  eV     1   --> A              
     e( 31 - 31) =      8.45181  eV     1   --> A              
     e( 32 - 32) =      8.54420  eV     1   --> A              
     e( 33 - 33) =      9.39444  eV     1   --> A              
     e( 34 - 34) =      9.58718  eV     1   --> A              
     e( 35 - 35) =      9.63975  eV     1   --> A              
     e( 36 - 36) =     10.54211  eV     1   --> A              
     e( 37 - 37) =     11.95835  eV     1   --> A              
     e( 38 - 38) =     12.01184  eV     1   --> A              
     e( 39 - 39) =     13.29945  eV     1   --> A              
     e( 40 - 40) =     13.45715  eV     1   --> A              
     e( 41 - 41) =     13.47429  eV     1   --> A              
     e( 42 - 42) =     13.81976  eV     1   --> A              
     e( 43 - 43) =     13.92106  eV     1   --> A              
     e( 44 - 44) =     14.17845  eV     1   --> A              
     e( 45 - 45) =     14.26988  eV     1   --> A              
     e( 46 - 46) =     14.92476  eV     1   --> A              
     e( 47 - 47) =     15.24266  eV     1   --> A              
     e( 48 - 48) =     15.36901  eV     1   --> A              
     e( 49 - 49) =     15.71524  eV     1   --> A              
     e( 50 - 50) =     16.65311  eV     1   --> A              
     e( 51 - 51) =     16.97309  eV     1   --> A              
     e( 52 - 52) =     17.05770  eV     1   --> A              
     e( 53 - 53) =     17.71250  eV     1   --> A              
     e( 54 - 54) =     18.29989  eV     1   --> A              
     e( 55 - 55) =     18.43524  eV     1   --> A              
     e( 56 - 56) =     19.10418  eV     1   --> A              
     e( 57 - 57) =     19.35532  eV     1   --> A              
     e( 58 - 58) =     19.37125  eV     1   --> A              
     e( 59 - 59) =     19.70093  eV     1   --> A              
     e( 60 - 60) =     19.86715  eV     1   --> A              
     e( 61 - 61) =     20.01157  eV     1   --> A              
     e( 62 - 62) =     20.32494  eV     1   --> A              
     e( 63 - 63) =     20.60706  eV     1   --> A              
     e( 64 - 64) =     20.91592  eV     1   --> A              

 **************************************************************************

 **************************************************************************

                    xk=(   0.25000,   0.00000,   0.25000  )

     Band symmetry, C_1 (1)     point group:

     e(  1 -  1) =     -9.19506  eV     1   --> A              
     e(  2 -  2) =     -9.18074  eV     1   --> A              
     e(  3 -  3) =     -9.17419  eV     1   --> A              
     e(  4 -  4) =     -9.14055  eV     1   --> A              
     e(  5 -  5) =     -9.13289  eV     1   --> A              
     e(  6 -  6) =     -9.11748  eV     1   --> A              
     e(  7 -  7) =     -9.09309  eV     1   --> A              
     e(  8 -  8) =     -9.09267  eV     1   --> A              
     e(  9 -  9) =     -9.08295  eV     1   --> A              
     e( 10 - 10) =     -9.08031  eV     1   --> A              
     e( 11 - 11) =     -6.32146  eV     1   --> A              
     e( 12 - 12) =     -5.04190  eV     1   --> A              
     e( 13 - 13) =     -5.02795  eV     1   --> A              
     e( 14 - 14) =     -4.68670  eV     1   --> A              
     e( 15 - 15) =     -0.74673  eV     1   --> A              
     e( 16 - 16) =     -0.06158  eV     1   --> A              
     e( 17 - 17) =      0.28911  eV     1   --> A              
     e( 18 - 18) =      1.86392  eV     1   --> A              
     e( 19 - 19) =      2.53880  eV     1   --> A              
     e( 20 - 20) =      2.64644  eV     1   --> A              
     e( 21 - 21) =      2.67198  eV     1   --> A              
     e( 22 - 22) =      3.16284  eV     1   --> A              
     e( 23 - 23) =      3.17052  eV     1   --> A              
     e( 24 - 24) =      3.37276  eV     1   --> A              
     e( 25 - 25) =      4.16622  eV     1   --> A              
     e( 26 - 26) =      5.08797  eV     1   --> A              
     e( 27 - 27) =      7.34451  eV     1   --> A              
     e( 28 - 28) =      7.67497  eV     1   --> A              
     e( 29 - 29) =      8.09136  eV     1   --> A              
     e( 30 - 30) =      8.18678  eV     1   --> A              
     e( 31 - 31) =      8.67785  eV     1   --> A              
     e( 32 - 32) =      8.75130  eV     1   --> A              
     e( 33 - 33) =      9.46794  eV     1   --> A              
     e( 34 - 34) =      9.66826  eV     1   --> A              
     e( 35 - 35) =     10.04790  eV     1   --> A              
     e( 36 - 36) =     10.70008  eV     1   --> A              
     e( 37 - 37) =     11.51353  eV     1   --> A              
     e( 38 - 38) =     11.57711  eV     1   --> A              
     e( 39 - 39) =     13.17087  eV     1   --> A              
     e( 40 - 40) =     13.21419  eV     1   --> A              
     e( 41 - 41) =     13.24019  eV     1   --> A              
     e( 42 - 42) =     13.54597  eV     1   --> A              
     e( 43 - 43) =     13.75918  eV     1   --> A              
     e( 44 - 44) =     13.93323  eV     1   --> A              
     e( 45 - 45) =     14.26050  eV     1   --> A              
     e( 46 - 46) =     15.01187  eV     1   --> A              
     e( 47 - 47) =     15.03313  eV     1   --> A              
     e( 48 - 48) =     15.38776  eV     1   --> A              
     e( 49 - 49) =     15.49031  eV     1   --> A              
     e( 50 - 50) =     16.58907  eV     1   --> A              
     e( 51 - 51) =     16.77708  eV     1   --> A              
     e( 52 - 52) =     17.05275  eV     1   --> A              
     e( 53 - 53) =     17.94300  eV     1   --> A              
     e( 54 - 54) =     18.31282  eV     1   --> A              
     e( 55 - 55) =     18.43943  eV     1   --> A              
     e( 56 - 56) =     19.27152  eV     1   --> A              
     e( 57 - 57) =     19.39462  eV     1   --> A              
     e( 58 - 58) =     19.41031  eV     1   --> A              
     e( 59 - 59) =     19.60647  eV     1   --> A              
     e( 60 - 60) =     19.78576  eV     1   --> A              
     e( 61 - 61) =     20.22691  eV     1   --> A              
     e( 62 - 62) =     20.27632  eV     1   --> A              
     e( 63 - 63) =     20.67533  eV     1   --> A              
     e( 64 - 64) =     20.80562  eV     1   --> A              

 **************************************************************************

 **************************************************************************

                    xk=(   0.27500,   0.00000,   0.27500  )

     Band symmetry, C_1 (1)     point group:

     e(  1 -  1) =     -9.19425  eV     1   --> A              
     e(  2 -  2) =     -9.18100  eV     1   --> A              
     e(  3 -  3) =     -9.17298  eV     1   --> A              
     e(  4 -  4) =     -9.14206  eV     1   --> A              
     e(  5 -  5) =     -9.13289  eV     1   --> A              
     e(  6 -  6) =     -9.11869  eV     1   --> A              
     e(  7 -  7) =     -9.09249  eV     1   --> A              
     e(  8 -  8) =     -9.09212  eV     1   --> A              
     e(  9 -  9) =     -9.08322  eV     1   --> A              
     e( 10 - 10) =     -9.08074  eV     1   --> A              
     e( 11 - 11) =     -6.24181  eV     1   --> A              
     e( 12 - 12) =     -5.09376  eV     1   --> A              
     e( 13 - 13) =     -5.07659  eV     1   --> A              
     e( 14 - 14) =     -4.71040  eV     1   --> A              
     e( 15 - 15) =     -0.69324  eV     1   --> A              
     e( 16 - 16) =      0.00258  eV     1   --> A              
     e( 17 - 17) =      0.34193  eV     1   --> A              
     e( 18 - 18) =      1.80126  eV     1   --> A              
     e( 19 - 19) =      2.28856  eV     1   --> A              
     e( 20 - 20) =      2.59608  eV     1   --> A              
     e( 21 - 21) =      2.60300  eV     1   --> A              
     e( 22 - 22) =      3.25737  eV     1   --> A              
     e( 23 - 23) =      3.26317  eV     1   --> A              
     e( 24 - 24) =      3.44795  eV     1   --> A              
     e( 25 - 25) =      3.97538  eV     1   --> A              
     e( 26 - 26) =      5.03680  eV     1   --> A              
     e( 27 - 27) =      7.43444  eV     1   --> A              
     e( 28 - 28) =      7.80330  eV     1   --> A              
     e( 29 - 29) =      8.32714  eV     1   --> A              
     e( 30 - 30) =      8.39446  eV     1   --> A              
     e( 31 - 31) =      8.90251  eV     1   --> A              
     e( 32 - 32) =      8.96149  eV     1   --> A              
     e( 33 - 33) =      9.55773  eV     1   --> A              
     e( 34 - 34) =      9.75859  eV     1   --> A              
     e( 35 - 35) =     10.45330  eV     1   --> A              
     e( 36 - 36) =     10.80616  eV     1   --> A              
     e( 37 - 37) =     11.10094  eV     1   --> A              
     e( 38 - 38) =     11.18137  eV     1   --> A              
     e( 39 - 39) =     12.95739  eV     1   --> A              
     e( 40 - 40) =     13.04819  eV     1   --> A              
     e( 41 - 41) =     13.06863  eV     1   --> A              
     e( 42 - 42) =     13.26586  eV     1   --> A              
     e( 43 - 43) =     13.56237  eV     1   --> A              
     e( 44 - 44) =     13.69636  eV     1   --> A              
     e( 45 - 45) =     14.32663  eV     1   --> A              
     e( 46 - 46) =     14.80908  eV     1   --> A              
     e( 47 - 47) =     14.94004  eV     1   --> A              
     e( 48 - 48) =     15.28512  eV     1   --> A              
     e( 49 - 49) =     15.57249  eV     1   --> A              
     e( 50 - 50) =     16.47914  eV     1   --> A              
     e( 51 - 51) =     16.58211  eV     1   --> A              
     e( 52 - 52) =     17.10380  eV     1   --> A              
     e( 53 - 53) =     18.21854  eV     1   --> A              
     e( 54 - 54) =     18.29796  eV     1   --> A              
     e( 55 - 55) =     18.40936  eV     1   --> A              
     e( 56 - 56) =     19.31930  eV     1   --> A              
     e( 57 - 57) =     19.34737  eV     1   --> A              
     e( 58 - 58) =     19.39449  eV     1   --> A              
     e( 59 - 59) =     19.47883  eV     1   --> A              
     e( 60 - 60) =     19.65067  eV     1   --> A              
     e( 61 - 61) =     20.17284  eV     1   --> A              
     e( 62 - 62) =     20.52764  eV     1   --> A              
     e( 63 - 63) =     20.67832  eV     1   --> A              
     e( 64 - 64) =     20.98489  eV     1   --> A              

 **************************************************************************

 **************************************************************************

                    xk=(   0.30000,   0.00000,   0.30000  )

     Band symmetry, C_1 (1)     point group:

     e(  1 -  1) =     -9.19343  eV     1   --> A              
     e(  2 -  2) =     -9.18143  eV     1   --> A              
     e(  3 -  3) =     -9.17174  eV     1   --> A              
     e(  4 -  4) =     -9.14370  eV     1   --> A              
     e(  5 -  5) =     -9.13287  eV     1   --> A              
     e(  6 -  6) =     -9.12001  eV     1   --> A              
     e(  7 -  7) =     -9.09190  eV     1   --> A              
     e(  8 -  8) =     -9.09157  eV     1   --> A              
     e(  9 -  9) =     -9.08357  eV     1   --> A              
     e( 10 - 10) =     -9.08123  eV     1   --> A              
     e( 11 - 11) =     -6.15669  eV     1   --> A              
     e( 12 - 12) =     -5.14311  eV     1   --> A              
     e( 13 - 13) =     -5.12209  eV     1   --> A              
     e( 14 - 14) =     -4.74238  eV     1   --> A              
     e( 15 - 15) =     -0.63891  eV     1   --> A              
     e( 16 - 16) =      0.05561  eV     1   --> A              
     e( 17 - 17) =      0.38810  eV     1   --> A              
     e( 18 - 18) =      1.76619  eV     1   --> A              
     e( 19 - 19) =      2.03510  eV     1   --> A              
     e( 20 - 20) =      2.54805  eV     1   --> A              
     e( 21 - 21) =      2.55081  eV     1   --> A              
     e( 22 - 22) =      3.37101  eV     1   --> A              
     e( 23 - 23) =      3.37633  eV     1   --> A              
     e( 24 - 24) =      3.52851  eV     1   --> A              
     e( 25 - 25) =      3.78127  eV     1   --> A              
     e( 26 - 26) =      4.97798  eV     1   --> A              
     e( 27 - 27) =      7.52592  eV     1   --> A              
     e( 28 - 28) =      7.91266  eV     1   --> A              
     e( 29 - 29) =      8.57423  eV     1   --> A              
     e( 30 - 30) =      8.61691  eV     1   --> A              
     e( 31 - 31) =      9.11011  eV     1   --> A              
     e( 32 - 32) =      9.15686  eV     1   --> A              
     e( 33 - 33) =      9.66445  eV     1   --> A              
     e( 34 - 34) =      9.85760  eV     1   --> A              
     e( 35 - 35) =     10.67438  eV     1   --> A              
     e( 36 - 36) =     10.74689  eV     1   --> A              
     e( 37 - 37) =     10.89076  eV     1   --> A              
     e( 38 - 38) =     10.95050  eV     1   --> A              
     e( 39 - 39) =     12.70421  eV     1   --> A              
     e( 40 - 40) =     12.88669  eV     1   --> A              
     e( 41 - 41) =     12.98443  eV     1   --> A              
     e( 42 - 42) =     12.99456  eV     1   --> A              
     e( 43 - 43) =     13.34205  eV     1   --> A              
     e( 44 - 44) =     13.45919  eV     1   --> A              
     e( 45 - 45) =     14.41077  eV     1   --> A              
     e( 46 - 46) =     14.57108  eV     1   --> A              
     e( 47 - 47) =     14.87475  eV     1   --> A              
     e( 48 - 48) =     15.08949  eV     1   --> A              
     e( 49 - 49) =     15.79022  eV     1   --> A              
     e( 50 - 50) =     16.34439  eV     1   --> A              
     e( 51 - 51) =     16.38212  eV     1   --> A              
     e( 52 - 52) =     17.19097  eV     1   --> A              
     e( 53 - 53) =     18.24822  eV     1   --> A              
     e( 54 - 54) =     18.33654  eV     1   --> A              
     e( 55 - 55) =     18.53141  eV     1   --> A              
     e( 56 - 56) =     19.21036  eV     1   --> A              
     e( 57 - 57) =     19.22952  eV     1   --> A              
     e( 58 - 58) =     19.29596  eV     1   --> A              
     e( 59 - 59) =     19.49265  eV     1   --> A              
     e( 60 - 60) =     19.54367  eV     1   --> A              
     e( 61 - 61) =     20.04055  eV     1   --> A              
     e( 62 - 62) =     20.66492  eV     1   --> A              
     e( 63 - 63) =     20.74113  eV     1   --> A              
     e( 64 - 64) =     21.35309  eV     1   --> A              

 **************************************************************************

 **************************************************************************

                    xk=(   0.32500,   0.00000,   0.32500  )

     Band symmetry, C_1 (1)     point group:

     e(  1 -  1) =     -9.19262  eV     1   --> A              
     e(  2 -  2) =     -9.18197  eV     1   --> A              
     e(  3 -  3) =     -9.17043  eV     1   --> A              
     e(  4 -  4) =     -9.14539  eV     1   --> A              
     e(  5 -  5) =     -9.13283  eV     1   --> A              
     e(  6 -  6) =     -9.12136  eV     1   --> A              
     e(  7 -  7) =     -9.09128  eV     1   --> A              
     e(  8 -  8) =     -9.09102  eV     1   --> A              
     e(  9 -  9) =     -9.08394  eV     1   --> A              
     e( 10 - 10) =     -9.08179  eV     1   --> A              
     e( 11 - 11) =     -6.06689  eV     1   --> A              
     e( 12 - 12) =     -5.18914  eV     1   --> A              
     e( 13 - 13) =     -5.16349  eV     1   --> A              
     e( 14 - 14) =     -4.78313  eV     1   --> A              
     e( 15 - 15) =     -0.58232  eV     1   --> A              
     e( 16 - 16) =      0.09630  eV     1   --> A              
     e( 17 - 17) =      0.42748  eV     1   --> A              
     e( 18 - 18) =      1.75895  eV     1   --> A              
     e( 19 - 19) =      1.79263  eV     1   --> A              
     e( 20 - 20) =      2.50359  eV     1   --> A              
     e( 21 - 21) =      2.50435  eV     1   --> A              
     e( 22 - 22) =      3.50143  eV     1   --> A              
     e( 23 - 23) =      3.50675  eV     1   --> A              
     e( 24 - 24) =      3.58608  eV     1   --> A              
     e( 25 - 25) =      3.61436  eV     1   --> A              
     e( 26 - 26) =      4.91239  eV     1   --> A              
     e( 27 - 27) =      7.61813  eV     1   --> A              
     e( 28 - 28) =      8.00156  eV     1   --> A              
     e( 29 - 29) =      8.82597  eV     1   --> A              
     e( 30 - 30) =      8.84698  eV     1   --> A              
     e( 31 - 31) =      9.26916  eV     1   --> A              
     e( 32 - 32) =      9.30277  eV     1   --> A              
     e( 33 - 33) =      9.79309  eV     1   --> A              
     e( 34 - 34) =      9.96562  eV     1   --> A              
     e( 35 - 35) =     10.41145  eV     1   --> A              
     e( 36 - 36) =     10.49803  eV     1   --> A              
     e( 37 - 37) =     10.95056  eV     1   --> A              
     e( 38 - 38) =     11.18389  eV     1   --> A              
     e( 39 - 39) =     12.45622  eV     1   --> A              
     e( 40 - 40) =     12.67587  eV     1   --> A              
     e( 41 - 41) =     12.83996  eV     1   --> A              
     e( 42 - 42) =     12.90828  eV     1   --> A              
     e( 43 - 43) =     13.11554  eV     1   --> A              
     e( 44 - 44) =     13.23725  eV     1   --> A              
     e( 45 - 45) =     14.32837  eV     1   --> A              
     e( 46 - 46) =     14.39504  eV     1   --> A              
     e( 47 - 47) =     14.89992  eV     1   --> A              
     e( 48 - 48) =     14.95561  eV     1   --> A              
     e( 49 - 49) =     15.97903  eV     1   --> A              
     e( 50 - 50) =     16.18615  eV     1   --> A              
     e( 51 - 51) =     16.22485  eV     1   --> A              
     e( 52 - 52) =     17.30166  eV     1   --> A              
     e( 53 - 53) =     18.16903  eV     1   --> A              
     e( 54 - 54) =     18.23651  eV     1   --> A              
     e( 55 - 55) =     18.86822  eV     1   --> A              
     e( 56 - 56) =     19.07792  eV     1   --> A              
     e( 57 - 57) =     19.10891  eV     1   --> A              
     e( 58 - 58) =     19.17684  eV     1   --> A              
     e( 59 - 59) =     19.46812  eV     1   --> A              
     e( 60 - 60) =     19.48074  eV     1   --> A              
     e( 61 - 61) =     19.83488  eV     1   --> A              
     e( 62 - 62) =     20.73404  eV     1   --> A              
     e( 63 - 63) =     20.86083  eV     1   --> A              
     e( 64 - 64) =     21.39951  eV     1   --> A              

 **************************************************************************

 **************************************************************************

                    xk=(   0.35000,   0.00000,   0.35000  )

     Band symmetry, C_1 (1)     point group:

     e(  1 -  1) =     -9.19175  eV     1   --> A              
     e(  2 -  2) =     -9.18245  eV     1   --> A              
     e(  3 -  3) =     -9.16892  eV     1   --> A              
     e(  4 -  4) =     -9.14716  eV     1   --> A              
     e(  5 -  5) =     -9.13267  eV     1   --> A              
     e(  6 -  6) =     -9.12264  eV     1   --> A              
     e(  7 -  7) =     -9.09062  eV     1   --> A              
     e(  8 -  8) =     -9.09045  eV     1   --> A              
     e(  9 -  9) =     -9.08432  eV     1   --> A              
     e( 10 - 10) =     -9.08236  eV     1   --> A              
     e( 11 - 11) =     -5.97324  eV     1   --> A              
     e( 12 - 12) =     -5.23105  eV     1   --> A              
     e( 13 - 13) =     -5.19979  eV     1   --> A              
     e( 14 - 14) =     -4.83248  eV     1   --> A              
     e( 15 - 15) =     -0.52169  eV     1   --> A              
     e( 16 - 16) =      0.12371  eV     1   --> A              
     e( 17 - 17) =      0.46108  eV     1   --> A              
     e( 18 - 18) =      1.56511  eV     1   --> A              
     e( 19 - 19) =      1.77867  eV     1   --> A              
     e( 20 - 20) =      2.46314  eV     1   --> A              
     e( 21 - 21) =      2.46388  eV     1   --> A              
     e( 22 - 22) =      3.39221  eV     1   --> A              
     e( 23 - 23) =      3.64308  eV     1   --> A              
     e( 24 - 24) =      3.65029  eV     1   --> A              
     e( 25 - 25) =      3.70666  eV     1   --> A              
     e( 26 - 26) =      4.84003  eV     1   --> A              
     e( 27 - 27) =      7.70992  eV     1   --> A              
     e( 28 - 28) =      8.06803  eV     1   --> A              
     e( 29 - 29) =      9.04890  eV     1   --> A              
     e( 30 - 30) =      9.05168  eV     1   --> A              
     e( 31 - 31) =      9.33904  eV     1   --> A              
     e( 32 - 32) =      9.36682  eV     1   --> A              
     e( 33 - 33) =      9.95085  eV     1   --> A              
     e( 34 - 34) =     10.08243  eV     1   --> A              
     e( 35 - 35) =     10.28381  eV     1   --> A              
     e( 36 - 36) =     10.36606  eV     1   --> A              
     e( 37 - 37) =     10.95052  eV     1   --> A              
     e( 38 - 38) =     11.38287  eV     1   --> A              
     e( 39 - 39) =     12.21533  eV     1   --> A              
     e( 40 - 40) =     12.40858  eV     1   --> A              
     e( 41 - 41) =     12.76644  eV     1   --> A              
     e( 42 - 42) =     12.76667  eV     1   --> A              
     e( 43 - 43) =     12.95821  eV     1   --> A              
     e( 44 - 44) =     13.13375  eV     1   --> A              
     e( 45 - 45) =     14.08936  eV     1   --> A              
     e( 46 - 46) =     14.27475  eV     1   --> A              
     e( 47 - 47) =     14.71691  eV     1   --> A              
     e( 48 - 48) =     15.18045  eV     1   --> A              
     e( 49 - 49) =     15.97546  eV     1   --> A              
     e( 50 - 50) =     16.00309  eV     1   --> A              
     e( 51 - 51) =     16.29107  eV     1   --> A              
     e( 52 - 52) =     17.43164  eV     1   --> A              
     e( 53 - 53) =     18.07537  eV     1   --> A              
     e( 54 - 54) =     18.12820  eV     1   --> A              
     e( 55 - 55) =     18.94259  eV     1   --> A              
     e( 56 - 56) =     18.97655  eV     1   --> A              
     e( 57 - 57) =     19.06946  eV     1   --> A              
     e( 58 - 58) =     19.22794  eV     1   --> A              
     e( 59 - 59) =     19.41057  eV     1   --> A              
     e( 60 - 60) =     19.43829  eV     1   --> A              
     e( 61 - 61) =     19.61347  eV     1   --> A              
     e( 62 - 62) =     20.61397  eV     1   --> A              
     e( 63 - 63) =     20.80849  eV     1   --> A              
     e( 64 - 64) =     21.51374  eV     1   --> A              

 **************************************************************************

 **************************************************************************

                    xk=(   0.37500,   0.00000,   0.37500  )

     Band symmetry, C_1 (1)     point group:

     e(  1 -  1) =     -9.19086  eV     1   --> A              
     e(  2 -  2) =     -9.18295  eV     1   --> A              
     e(  3 -  3) =     -9.16733  eV     1   --> A              
     e(  4 -  4) =     -9.14900  eV     1   --> A              
     e(  5 -  5) =     -9.13243  eV     1   --> A              
     e(  6 -  6) =     -9.12394  eV     1   --> A              
     e(  7 -  8) =     -9.08994  eV     2   -->   2 A              
     e(  9 -  9) =     -9.08475  eV     1   --> A              
     e( 10 - 10) =     -9.08300  eV     1   --> A              
     e( 11 - 11) =     -5.87687  eV     1   --> A              
     e( 12 - 12) =     -5.26877  eV     1   --> A              
     e( 13 - 13) =     -5.23010  eV     1   --> A              
     e( 14 - 14) =     -4.89041  eV     1   --> A              
     e( 15 - 15) =     -0.45561  eV     1   --> A              
     e( 16 - 16) =      0.13703  eV     1   --> A              
     e( 17 - 17) =      0.49041  eV     1   --> A              
     e( 18 - 18) =      1.35534  eV     1   --> A              
     e( 19 - 19) =      1.82343  eV     1   --> A              
     e( 20 - 20) =      2.42716  eV     1   --> A              
     e( 21 - 21) =      2.42959  eV     1   --> A              
     e( 22 - 22) =      3.20165  eV     1   --> A              
     e( 23 - 23) =      3.77832  eV     1   --> A              
     e( 24 - 24) =      3.80000  eV     1   --> A              
     e( 25 - 25) =      3.81529  eV     1   --> A              
     e( 26 - 26) =      4.76153  eV     1   --> A              
     e( 27 - 27) =      7.79777  eV     1   --> A              
     e( 28 - 28) =      8.10861  eV     1   --> A              
     e( 29 - 29) =      9.05054  eV     1   --> A              
     e( 30 - 30) =      9.07720  eV     1   --> A              
     e( 31 - 31) =      9.48213  eV     1   --> A              
     e( 32 - 32) =      9.48706  eV     1   --> A              
     e( 33 - 33) =     10.12523  eV     1   --> A              
     e( 34 - 34) =     10.20840  eV     1   --> A              
     e( 35 - 35) =     10.34518  eV     1   --> A              
     e( 36 - 36) =     10.40068  eV     1   --> A              
     e( 37 - 37) =     10.94054  eV     1   --> A              
     e( 38 - 38) =     11.43888  eV     1   --> A              
     e( 39 - 39) =     11.98075  eV     1   --> A              
     e( 40 - 40) =     12.14291  eV     1   --> A              
     e( 41 - 41) =     12.51489  eV     1   --> A              
     e( 42 - 42) =     12.56786  eV     1   --> A              
     e( 43 - 43) =     12.91308  eV     1   --> A              
     e( 44 - 44) =     13.30982  eV     1   --> A              
     e( 45 - 45) =     13.86343  eV     1   --> A              
     e( 46 - 46) =     14.12131  eV     1   --> A              
     e( 47 - 47) =     14.53429  eV     1   --> A              
     e( 48 - 48) =     15.44936  eV     1   --> A              
     e( 49 - 49) =     15.83871  eV     1   --> A              
     e( 50 - 50) =     15.85604  eV     1   --> A              
     e( 51 - 51) =     16.47901  eV     1   --> A              
     e( 52 - 52) =     17.57256  eV     1   --> A              
     e( 53 - 53) =     17.97974  eV     1   --> A              
     e( 54 - 54) =     18.03387  eV     1   --> A              
     e( 55 - 55) =     18.80721  eV     1   --> A              
     e( 56 - 56) =     18.87170  eV     1   --> A              
     e( 57 - 57) =     18.95196  eV     1   --> A              
     e( 58 - 58) =     19.31243  eV     1   --> A              
     e( 59 - 59) =     19.33515  eV     1   --> A              
     e( 60 - 60) =     19.40200  eV     1   --> A              
     e( 61 - 61) =     19.62678  eV     1   --> A              
     e( 62 - 62) =     20.21466  eV     1   --> A              
     e( 63 - 63) =     20.83018  eV     1   --> A              
     e( 64 - 64) =     21.65733  eV     1   --> A              

 **************************************************************************

 **************************************************************************

                    xk=(   0.40000,   0.00000,   0.40000  )

     Band symmetry, C_1 (1)     point group:

     e(  1 -  1) =     -9.18996  eV     1   --> A              
     e(  2 -  2) =     -9.18347  eV     1   --> A              
     e(  3 -  3) =     -9.16556  eV     1   --> A              
     e(  4 -  4) =     -9.15082  eV     1   --> A              
     e(  5 -  5) =     -9.13207  eV     1   --> A              
     e(  6 -  6) =     -9.12511  eV     1   --> A              
     e(  7 -  7) =     -9.08931  eV     1   --> A              
     e(  8 -  8) =     -9.08920  eV     1   --> A              
     e(  9 -  9) =     -9.08512  eV     1   --> A              
     e( 10 - 10) =     -9.08361  eV     1   --> A              
     e( 11 - 11) =     -5.77918  eV     1   --> A              
     e( 12 - 12) =     -5.30228  eV     1   --> A              
     e( 13 - 13) =     -5.25346  eV     1   --> A              
     e( 14 - 14) =     -4.95604  eV     1   --> A              
     e( 15 - 15) =     -0.38295  eV     1   --> A              
     e( 16 - 16) =      0.13512  eV     1   --> A              
     e( 17 - 17) =      0.51789  eV     1   --> A              
     e( 18 - 18) =      1.16642  eV     1   --> A              
     e( 19 - 19) =      1.89127  eV     1   --> A              
     e( 20 - 20) =      2.39696  eV     1   --> A              
     e( 21 - 21) =      2.40094  eV     1   --> A              
     e( 22 - 22) =      3.01630  eV     1   --> A              
     e( 23 - 23) =      3.88520  eV     1   --> A              
     e( 24 - 24) =      3.94765  eV     1   --> A              
     e( 25 - 25) =      3.95482  eV     1   --> A              
     e( 26 - 26) =      4.67781  eV     1   --> A              
     e( 27 - 27) =      7.87773  eV     1   --> A              
     e( 28 - 28) =      8.11879  eV     1   --> A              
     e( 29 - 29) =      8.87025  eV     1   --> A              
     e( 30 - 30) =      8.93394  eV     1   --> A              
     e( 31 - 31) =      9.72680  eV     1   --> A              
     e( 32 - 32) =      9.75013  eV     1   --> A              
     e( 33 - 33) =     10.29812  eV     1   --> A              
     e( 34 - 34) =     10.34727  eV     1   --> A              
     e( 35 - 35) =     10.50834  eV     1   --> A              
     e( 36 - 36) =     10.54641  eV     1   --> A              
     e( 37 - 37) =     10.93243  eV     1   --> A              
     e( 38 - 38) =     11.39560  eV     1   --> A              
     e( 39 - 39) =     11.75317  eV     1   --> A              
     e( 40 - 40) =     11.88704  eV     1   --> A              
     e( 41 - 41) =     12.23170  eV     1   --> A              
     e( 42 - 42) =     12.31053  eV     1   --> A              
     e( 43 - 43) =     12.90122  eV     1   --> A              
     e( 44 - 44) =     13.51778  eV     1   --> A              
     e( 45 - 45) =     13.78839  eV     1   --> A              
     e( 46 - 46) =     13.97146  eV     1   --> A              
     e( 47 - 47) =     14.36299  eV     1   --> A              
     e( 48 - 48) =     15.64629  eV     1   --> A              
     e( 49 - 49) =     15.70405  eV     1   --> A              
     e( 50 - 50) =     15.80002  eV     1   --> A              
     e( 51 - 51) =     16.68062  eV     1   --> A              
     e( 52 - 52) =     17.70083  eV     1   --> A              
     e( 53 - 53) =     17.89531  eV     1   --> A              
     e( 54 - 54) =     17.99081  eV     1   --> A              
     e( 55 - 55) =     18.66151  eV     1   --> A              
     e( 56 - 56) =     18.77551  eV     1   --> A              
     e( 57 - 57) =     18.81778  eV     1   --> A              
     e( 58 - 58) =     19.19762  eV     1   --> A              
     e( 59 - 59) =     19.23372  eV     1   --> A              
     e( 60 - 60) =     19.24941  eV     1   --> A              
     e( 61 - 61) =     19.64380  eV     1   --> A              
     e( 62 - 62) =     20.23658  eV     1   --> A              
     e( 63 - 63) =     20.74489  eV     1   --> A              
     e( 64 - 64) =     21.78428  eV     1   --> A              

 **************************************************************************

 **************************************************************************

                    xk=(   0.42500,   0.00000,   0.42500  )

     Band symmetry, C_1 (1)     point group:

     e(  1 -  1) =     -9.18906  eV     1   --> A              
     e(  2 -  2) =     -9.18415  eV     1   --> A              
     e(  3 -  3) =     -9.16388  eV     1   --> A              
     e(  4 -  4) =     -9.15266  eV     1   --> A              
     e(  5 -  5) =     -9.13160  eV     1   --> A              
     e(  6 -  6) =     -9.12633  eV     1   --> A              
     e(  7 -  7) =     -9.08875  eV     1   --> A              
     e(  8 -  8) =     -9.08850  eV     1   --> A              
     e(  9 -  9) =     -9.08558  eV     1   --> A              
     e( 10 - 10) =     -9.08427  eV     1   --> A              
     e( 11 - 11) =     -5.68225  eV     1   --> A              
     e( 12 - 12) =     -5.33261  eV     1   --> A              
     e( 13 - 13) =     -5.26848  eV     1   --> A              
     e( 14 - 14) =     -5.02798  eV     1   --> A              
     e( 15 - 15) =     -0.30400  eV     1   --> A              
     e( 16 - 16) =      0.11629  eV     1   --> A              
     e( 17 - 17) =      0.54613  eV     1   --> A              
     e( 18 - 18) =      1.00186  eV     1   --> A              
     e( 19 - 19) =      1.97916  eV     1   --> A              
     e( 20 - 20) =      2.37262  eV     1   --> A              
     e( 21 - 21) =      2.37862  eV     1   --> A              
     e( 22 - 22) =      2.83770  eV     1   --> A              
     e( 23 - 23) =      3.98494  eV     1   --> A              
     e( 24 - 24) =      4.08213  eV     1   --> A              
     e( 25 - 25) =      4.08982  eV     1   --> A              
     e( 26 - 26) =      4.58966  eV     1   --> A              
     e( 27 - 27) =      7.93923  eV     1   --> A              
     e( 28 - 28) =      8.09618  eV     1   --> A              
     e( 29 - 29) =      8.68519  eV     1   --> A              
     e( 30 - 30) =      8.77815  eV     1   --> A              
     e( 31 - 31) =      9.99476  eV     1   --> A              
     e( 32 - 32) =     10.04320  eV     1   --> A              
     e( 33 - 33) =     10.46535  eV     1   --> A              
     e( 34 - 34) =     10.50826  eV     1   --> A              
     e( 35 - 35) =     10.69418  eV     1   --> A              
     e( 36 - 36) =     10.72720  eV     1   --> A              
     e( 37 - 37) =     10.93715  eV     1   --> A              
     e( 38 - 38) =     11.30587  eV     1   --> A              
     e( 39 - 39) =     11.52900  eV     1   --> A              
     e( 40 - 40) =     11.64201  eV     1   --> A              
     e( 41 - 41) =     11.93574  eV     1   --> A              
     e( 42 - 42) =     12.03318  eV     1   --> A              
     e( 43 - 43) =     12.89833  eV     1   --> A              
     e( 44 - 44) =     13.36530  eV     1   --> A              
     e( 45 - 45) =     13.84460  eV     1   --> A              
     e( 46 - 46) =     14.13619  eV     1   --> A              
     e( 47 - 47) =     14.21154  eV     1   --> A              
     e( 48 - 48) =     15.59633  eV     1   --> A              
     e( 49 - 49) =     15.59771  eV     1   --> A              
     e( 50 - 50) =     15.92530  eV     1   --> A              
     e( 51 - 51) =     16.90102  eV     1   --> A              
     e( 52 - 52) =     17.74323  eV     1   --> A              
     e( 53 - 53) =     17.82303  eV     1   --> A              
     e( 54 - 54) =     18.07632  eV     1   --> A              
     e( 55 - 55) =     18.47566  eV     1   --> A              
     e( 56 - 56) =     18.68609  eV     1   --> A              
     e( 57 - 57) =     18.69499  eV     1   --> A              
[...]
     e( 28 - 28) =      6.95813  eV     1   --> A              
     e( 29 - 29) =      7.17327  eV     1   --> A              
     e( 30 - 30) =      7.32903  eV     1   --> A              
     e( 31 - 31) =      7.53467  eV     1   --> A              
     e( 32 - 32) =      8.04176  eV     1   --> A              
     e( 33 - 33) =      8.21978  eV     1   --> A              
     e( 34 - 34) =      9.17181  eV     1   --> A              
     e( 35 - 35) =      9.58552  eV     1   --> A              
     e( 36 - 36) =      9.61536  eV     1   --> A              
     e( 37 - 37) =     13.78946  eV     1   --> A              
     e( 38 - 38) =     13.89762  eV     1   --> A              
     e( 39 - 39) =     13.90242  eV     1   --> A              
     e( 40 - 40) =     14.02543  eV     1   --> A              
     e( 41 - 41) =     14.09044  eV     1   --> A              
     e( 42 - 42) =     14.39354  eV     1   --> A              
     e( 43 - 43) =     14.49654  eV     1   --> A              
     e( 44 - 44) =     14.60549  eV     1   --> A              
     e( 45 - 45) =     14.74327  eV     1   --> A              
     e( 46 - 46) =     15.60846  eV     1   --> A              
     e( 47 - 47) =     15.67436  eV     1   --> A              
     e( 48 - 48) =     15.81414  eV     1   --> A              
     e( 49 - 49) =     16.45677  eV     1   --> A              
     e( 50 - 50) =     17.06259  eV     1   --> A              
     e( 51 - 51) =     17.16498  eV     1   --> A              
     e( 52 - 52) =     17.42476  eV     1   --> A              
     e( 53 - 53) =     17.79995  eV     1   --> A              
     e( 54 - 54) =     17.97303  eV     1   --> A              
     e( 55 - 55) =     17.97401  eV     1   --> A              
     e( 56 - 56) =     18.10468  eV     1   --> A              
     e( 57 - 57) =     18.26625  eV     1   --> A              
     e( 58 - 58) =     18.57932  eV     1   --> A              
     e( 59 - 59) =     19.27015  eV     1   --> A              
     e( 60 - 60) =     19.30585  eV     1   --> A              
     e( 61 - 61) =     19.68647  eV     1   --> A              
     e( 62 - 62) =     20.00574  eV     1   --> A              
     e( 63 - 63) =     20.13864  eV     1   --> A              
     e( 64 - 64) =     20.58899  eV     1   --> A              

 **************************************************************************

 **************************************************************************

                    xk=(   0.05625,   0.05625,   0.11100  )

     Band symmetry, C_1 (1)     point group:

     e(  1 -  1) =     -9.19743  eV     1   --> A              
     e(  2 -  2) =     -9.17969  eV     1   --> A              
     e(  3 -  3) =     -9.17780  eV     1   --> A              
     e(  4 -  4) =     -9.13460  eV     1   --> A              
     e(  5 -  5) =     -9.13206  eV     1   --> A              
     e(  6 -  6) =     -9.11242  eV     1   --> A              
     e(  7 -  7) =     -9.09536  eV     1   --> A              
     e(  8 -  8) =     -9.09482  eV     1   --> A              
     e(  9 -  9) =     -9.08190  eV     1   --> A              
     e( 10 - 10) =     -9.07852  eV     1   --> A              
     e( 11 - 11) =     -6.66100  eV     1   --> A              
     e( 12 - 12) =     -4.76195  eV     1   --> A              
     e( 13 - 13) =     -4.67998  eV     1   --> A              
     e( 14 - 14) =     -4.67761  eV     1   --> A              
     e( 15 - 15) =     -1.02320  eV     1   --> A              
     e( 16 - 16) =     -0.60037  eV     1   --> A              
     e( 17 - 17) =     -0.02826  eV     1   --> A              
     e( 18 - 18) =      2.75471  eV     1   --> A              
     e( 19 - 19) =      2.75495  eV     1   --> A              
     e( 20 - 20) =      2.91837  eV     1   --> A              
     e( 21 - 21) =      3.01825  eV     1   --> A              
     e( 22 - 22) =      3.02153  eV     1   --> A              
     e( 23 - 23) =      3.06082  eV     1   --> A              
     e( 24 - 24) =      4.40437  eV     1   --> A              
     e( 25 - 25) =      5.15677  eV     1   --> A              
     e( 26 - 26) =      5.21938  eV     1   --> A              
     e( 27 - 27) =      6.75564  eV     1   --> A              
     e( 28 - 28) =      6.85020  eV     1   --> A              
     e( 29 - 29) =      7.04122  eV     1   --> A              
     e( 30 - 30) =      7.15126  eV     1   --> A              
     e( 31 - 31) =      7.26777  eV     1   --> A              
     e( 32 - 32) =      7.76752  eV     1   --> A              
     e( 33 - 33) =      8.00096  eV     1   --> A              
     e( 34 - 34) =      9.18860  eV     1   --> A              
     e( 35 - 35) =      9.44257  eV     1   --> A              
     e( 36 - 36) =      9.44706  eV     1   --> A              
     e( 37 - 37) =     13.69724  eV     1   --> A              
     e( 38 - 38) =     14.12856  eV     1   --> A              
     e( 39 - 39) =     14.38144  eV     1   --> A              
     e( 40 - 40) =     14.46501  eV     1   --> A              
     e( 41 - 41) =     14.49807  eV     1   --> A              
     e( 42 - 42) =     14.65039  eV     1   --> A              
     e( 43 - 43) =     14.73948  eV     1   --> A              
     e( 44 - 44) =     14.86000  eV     1   --> A              
     e( 45 - 45) =     14.93139  eV     1   --> A              
     e( 46 - 46) =     15.82800  eV     1   --> A              
     e( 47 - 47) =     15.85772  eV     1   --> A              
     e( 48 - 48) =     15.86883  eV     1   --> A              
     e( 49 - 49) =     16.56402  eV     1   --> A              
     e( 50 - 50) =     16.98459  eV     1   --> A              
     e( 51 - 51) =     17.19213  eV     1   --> A              
     e( 52 - 52) =     17.28281  eV     1   --> A              
     e( 53 - 53) =     17.77319  eV     1   --> A              
     e( 54 - 54) =     17.87152  eV     1   --> A              
     e( 55 - 55) =     18.02855  eV     1   --> A              
     e( 56 - 56) =     18.15526  eV     1   --> A              
     e( 57 - 57) =     18.22244  eV     1   --> A              
     e( 58 - 58) =     18.51339  eV     1   --> A              
     e( 59 - 59) =     19.06488  eV     1   --> A              
     e( 60 - 60) =     19.08531  eV     1   --> A              
     e( 61 - 61) =     19.27397  eV     1   --> A              
     e( 62 - 62) =     19.59390  eV     1   --> A              
     e( 63 - 63) =     19.78116  eV     1   --> A              
     e( 64 - 64) =     20.05995  eV     1   --> A              

 **************************************************************************

 **************************************************************************

                    xk=(   0.03750,   0.03750,   0.07400  )

     Band symmetry, C_1 (1)     point group:

     e(  1 -  1) =     -9.19814  eV     1   --> A              
     e(  2 -  2) =     -9.17952  eV     1   --> A              
     e(  3 -  3) =     -9.17866  eV     1   --> A              
     e(  4 -  4) =     -9.13320  eV     1   --> A              
     e(  5 -  5) =     -9.13203  eV     1   --> A              
     e(  6 -  6) =     -9.11138  eV     1   --> A              
     e(  7 -  7) =     -9.09580  eV     1   --> A              
     e(  8 -  8) =     -9.09519  eV     1   --> A              
     e(  9 -  9) =     -9.08168  eV     1   --> A              
     e( 10 - 10) =     -9.07819  eV     1   --> A              
     e( 11 - 11) =     -6.69584  eV     1   --> A              
     e( 12 - 12) =     -4.70475  eV     1   --> A              
     e( 13 - 13) =     -4.66796  eV     1   --> A              
     e( 14 - 14) =     -4.66574  eV     1   --> A              
     e( 15 - 15) =     -1.09005  eV     1   --> A              
     e( 16 - 16) =     -0.63478  eV     1   --> A              
     e( 17 - 17) =     -0.08882  eV     1   --> A              
     e( 18 - 19) =      2.87821  eV     2   -->   2 A              
     e( 20 - 20) =      2.95682  eV     1   --> A              
     e( 21 - 21) =      3.00418  eV     1   --> A              
     e( 22 - 22) =      3.00682  eV     1   --> A              
     e( 23 - 23) =      3.02574  eV     1   --> A              
     e( 24 - 24) =      4.79379  eV     1   --> A              
     e( 25 - 25) =      5.22375  eV     1   --> A              
     e( 26 - 26) =      5.26608  eV     1   --> A              
     e( 27 - 27) =      6.50466  eV     1   --> A              
     e( 28 - 28) =      6.80770  eV     1   --> A              
     e( 29 - 29) =      6.93266  eV     1   --> A              
     e( 30 - 30) =      7.00957  eV     1   --> A              
     e( 31 - 31) =      7.04992  eV     1   --> A              
     e( 32 - 32) =      7.56524  eV     1   --> A              
     e( 33 - 33) =      7.85180  eV     1   --> A              
     e( 34 - 34) =      9.21224  eV     1   --> A              
     e( 35 - 35) =      9.32875  eV     1   --> A              
     e( 36 - 36) =      9.33485  eV     1   --> A              
     e( 37 - 37) =     13.50877  eV     1   --> A              
     e( 38 - 38) =     14.39455  eV     1   --> A              
     e( 39 - 39) =     14.70656  eV     1   --> A              
     e( 40 - 40) =     14.77029  eV     1   --> A              
     e( 41 - 41) =     14.89479  eV     1   --> A              
     e( 42 - 42) =     14.92117  eV     1   --> A              
     e( 43 - 43) =     15.01515  eV     1   --> A              
     e( 44 - 44) =     15.08226  eV     1   --> A              
     e( 45 - 45) =     15.10187  eV     1   --> A              
     e( 46 - 46) =     15.90671  eV     1   --> A              
     e( 47 - 47) =     16.02716  eV     1   --> A              
     e( 48 - 48) =     16.05814  eV     1   --> A              
     e( 49 - 49) =     16.64824  eV     1   --> A              
     e( 50 - 50) =     16.84102  eV     1   --> A              
     e( 51 - 51) =     16.95759  eV     1   --> A              
     e( 52 - 52) =     17.40009  eV     1   --> A              
     e( 53 - 53) =     17.76644  eV     1   --> A              
     e( 54 - 54) =     17.90762  eV     1   --> A              
     e( 55 - 55) =     18.04287  eV     1   --> A              
     e( 56 - 56) =     18.15685  eV     1   --> A              
     e( 57 - 57) =     18.36147  eV     1   --> A              
     e( 58 - 58) =     18.45420  eV     1   --> A              
     e( 59 - 59) =     18.82933  eV     1   --> A              
     e( 60 - 60) =     18.85583  eV     1   --> A              
     e( 61 - 61) =     18.96554  eV     1   --> A              
     e( 62 - 62) =     19.19604  eV     1   --> A              
     e( 63 - 63) =     19.42987  eV     1   --> A              
     e( 64 - 64) =     19.55402  eV     1   --> A              

 **************************************************************************

 **************************************************************************

                    xk=(   0.01875,   0.01875,   0.03700  )

     Band symmetry, C_1 (1)     point group:

     e(  1 -  1) =     -9.19858  eV     1   --> A              
     e(  2 -  2) =     -9.17940  eV     1   --> A              
     e(  3 -  3) =     -9.17918  eV     1   --> A              
     e(  4 -  4) =     -9.13231  eV     1   --> A              
     e(  5 -  5) =     -9.13202  eV     1   --> A              
     e(  6 -  6) =     -9.11072  eV     1   --> A              
     e(  7 -  7) =     -9.09604  eV     1   --> A              
     e(  8 -  8) =     -9.09541  eV     1   --> A              
     e(  9 -  9) =     -9.08154  eV     1   --> A              
     e( 10 - 10) =     -9.07800  eV     1   --> A              
     e( 11 - 11) =     -6.71685  eV     1   --> A              
     e( 12 - 12) =     -4.66838  eV     1   --> A              
     e( 13 - 13) =     -4.66058  eV     1   --> A              
     e( 14 - 14) =     -4.65840  eV     1   --> A              
     e( 15 - 15) =     -1.13325  eV     1   --> A              
     e( 16 - 16) =     -0.65669  eV     1   --> A              
     e( 17 - 17) =     -0.12626  eV     1   --> A              
     e( 18 - 18) =      2.96205  eV     1   --> A              
     e( 19 - 19) =      2.96297  eV     1   --> A              
     e( 20 - 20) =      2.98322  eV     1   --> A              
     e( 21 - 21) =      2.99594  eV     1   --> A              
     e( 22 - 22) =      2.99692  eV     1   --> A              
     e( 23 - 23) =      3.00683  eV     1   --> A              
     e( 24 - 24) =      5.13253  eV     1   --> A              
     e( 25 - 25) =      5.26412  eV     1   --> A              
     e( 26 - 26) =      5.29657  eV     1   --> A              
     e( 27 - 27) =      6.24277  eV     1   --> A              
     e( 28 - 28) =      6.79508  eV     1   --> A              
     e( 29 - 29) =      6.85679  eV     1   --> A              
     e( 30 - 30) =      6.90009  eV     1   --> A              
     e( 31 - 31) =      6.91691  eV     1   --> A              
     e( 32 - 32) =      7.44329  eV     1   --> A              
     e( 33 - 33) =      7.76702  eV     1   --> A              
     e( 34 - 34) =      9.23222  eV     1   --> A              
     e( 35 - 35) =      9.26202  eV     1   --> A              
     e( 36 - 36) =      9.26498  eV     1   --> A              
     e( 37 - 37) =     13.38439  eV     1   --> A              
     e( 38 - 38) =     14.59636  eV     1   --> A              
     e( 39 - 39) =     14.80902  eV     1   --> A              
     e( 40 - 40) =     15.01391  eV     1   --> A              
     e( 41 - 41) =     15.15734  eV     1   --> A              
     e( 42 - 42) =     15.16739  eV     1   --> A              
     e( 43 - 43) =     15.18565  eV     1   --> A              
     e( 44 - 44) =     15.21435  eV     1   --> A              
     e( 45 - 45) =     15.25774  eV     1   --> A              
     e( 46 - 46) =     15.93181  eV     1   --> A              
     e( 47 - 47) =     16.18572  eV     1   --> A              
     e( 48 - 48) =     16.29068  eV     1   --> A              
     e( 49 - 49) =     16.67883  eV     1   --> A              
     e( 50 - 50) =     16.72432  eV     1   --> A              
     e( 51 - 51) =     16.76166  eV     1   --> A              
     e( 52 - 52) =     17.48476  eV     1   --> A              
     e( 53 - 53) =     17.78627  eV     1   --> A              
     e( 54 - 54) =     17.91553  eV     1   --> A              
     e( 55 - 55) =     18.05354  eV     1   --> A              
     e( 56 - 56) =     18.23035  eV     1   --> A              
     e( 57 - 57) =     18.47758  eV     1   --> A              
     e( 58 - 58) =     18.54523  eV     1   --> A              
     e( 59 - 59) =     18.58224  eV     1   --> A              
     e( 60 - 60) =     18.68977  eV     1   --> A              
     e( 61 - 61) =     18.78754  eV     1   --> A              
     e( 62 - 62) =     18.89586  eV     1   --> A              
     e( 63 - 63) =     19.08557  eV     1   --> A              
     e( 64 - 64) =     19.14373  eV     1   --> A              

 **************************************************************************

 **************************************************************************

                    xk=(   0.00000,   0.00000,   0.00000  )

     point group D_2d (-42m)
     there are  5 classes
     the character table:

       E     2S4   C2    2C2'  2s_d 
A_1    1.00  1.00  1.00  1.00  1.00
A_2    1.00  1.00  1.00 -1.00 -1.00
B_1    1.00 -1.00  1.00  1.00 -1.00
B_2    1.00 -1.00  1.00 -1.00  1.00
E      2.00  0.00 -2.00  0.00  0.00

     the symmetry operations in each class and the name of the first element:

     E        1
                                                                 
     2S4      7    8
                                                                 
     C2       4
                                                                 
     2C2'     2    3
                                                                 
     2s_d     5    6
                                                                 

     Band symmetry, D_2d (-42m) point group:

     e(  1 -  1) =     -9.19866  eV     1   --> B_2  X_3  W_2  
     e(  2 -  3) =     -9.17937  eV     2   --> E    X_5  W_3  
     e(  4 -  5) =     -9.13197  eV     2   --> E    X_5  W_3  
     e(  6 -  6) =     -9.11050  eV     1   --> B_2  X_3  W_2  
     e(  7 -  7) =     -9.09613  eV     1   --> B_1  X_2  W_1' 
     e(  8 -  8) =     -9.09541  eV     1   --> A_1  X_1  W_1  
     e(  9 -  9) =     -9.08149  eV     1   --> A_1  X_1  W_1  
     e( 10 - 10) =     -9.07786  eV     1   --> B_1  X_2  W_1' 
     e( 11 - 11) =     -6.72385  eV     1   --> A_1  X_1  W_1  
     e( 12 - 12) =     -4.65791  eV     1   --> B_2  X_3  W_2  
     e( 13 - 14) =     -4.65594  eV     2   --> E    X_5  W_3  
     e( 15 - 15) =     -1.14820  eV     1   --> A_1  X_1  W_1  
     e( 16 - 16) =     -0.66412  eV     1   --> A_1  X_1  W_1  
     e( 17 - 17) =     -0.13896  eV     1   --> B_1  X_2  W_1' 
     e( 18 - 18) =      2.98683  eV     1   --> B_2  X_3  W_2  
     e( 19 - 20) =      2.99333  eV     2   --> E    X_5  W_3  
     e( 21 - 22) =      2.99377  eV     2   --> E    X_5  W_3  
     e( 23 - 23) =      3.00446  eV     1   --> A_2  X_4  W_2' 
     e( 24 - 24) =      5.26809  eV     1   --> B_2  X_3  W_2  
     e( 25 - 26) =      5.30884  eV     2   --> E    X_5  W_3  
     e( 27 - 27) =      6.10162  eV     1   --> A_1  X_1  W_1  
     e( 28 - 28) =      6.81360  eV     1   --> A_1  X_1  W_1  
     e( 29 - 30) =      6.82770  eV     2   --> E    X_5  W_3  
     e( 31 - 31) =      6.88498  eV     1   --> B_2  X_3  W_2  
     e( 32 - 32) =      7.40415  eV     1   --> A_1  X_1  W_1  
     e( 33 - 33) =      7.73923  eV     1   --> B_1  X_2  W_1' 
     e( 34 - 35) =      9.24013  eV     2   --> E    X_5  W_3  
     e( 36 - 36) =      9.24167  eV     1   --> B_2  X_3  W_2  
     e( 37 - 37) =     13.34133  eV     1   --> A_1  X_1  W_1  
     e( 38 - 38) =     14.67806  eV     1   --> B_1  X_2  W_1' 
     e( 39 - 39) =     14.85769  eV     1   --> A_1  X_1  W_1  
     e( 40 - 40) =     15.09483  eV     1   --> A_2  X_4  W_2' 
     e( 41 - 42) =     15.24245  eV     2   --> E    X_5  W_3  
     e( 43 - 44) =     15.25171  eV     2   --> E    X_5  W_3  
     e( 45 - 45) =     15.33171  eV     1   --> B_2  X_3  W_2  
     e( 46 - 46) =     15.94049  eV     1   --> A_1  X_1  W_1  
     e( 47 - 47) =     16.26691  eV     1   --> A_1  X_1  W_1  
     e( 48 - 48) =     16.41064  eV     1   --> B_1  X_2  W_1' 
     e( 49 - 50) =     16.67018  eV     2   --> E    X_5  W_3  
     e( 51 - 51) =     16.69952  eV     1   --> B_2  X_3  W_2  
     e( 52 - 52) =     17.51308  eV     1   --> A_2  X_4  W_2' 
     e( 53 - 54) =     17.80304  eV     2   --> E    X_5  W_3  
     e( 55 - 55) =     18.28514  eV     1   --> B_2  X_3  W_2  
     e( 56 - 57) =     18.29215  eV     2   --> E    X_5  W_3  
     e( 58 - 59) =     18.59743  eV     2   --> E    X_5  W_3  
     e( 60 - 60) =     18.75585  eV     1   --> B_1  X_2  W_1' 
     e( 61 - 61) =     18.78056  eV     1   --> A_2  X_4  W_2' 
     e( 62 - 63) =     18.78177  eV     2   --> E    X_5  W_3  
     e( 64 - 64) =     18.92926  eV     1   --> B_2  X_3  W_2  

 **************************************************************************

     BANDS        :     45.49s CPU   1m27.01s WALL


   This run was terminated on:   6:57:22  16Dec2024            

=------------------------------------------------------------------------------=
   JOB DONE.
=------------------------------------------------------------------------------=
