
     Program PWSCF v.7.0 starts on 16Dec2024 at  6:23:37 

     This program is part of the open-source Quantum ESPRESSO suite
     for quantum simulation of materials; please cite
         "P. Giannozzi et al., J. Phys.:Condens. Matter 21 395502 (2009);
         "P. Giannozzi et al., J. Phys.:Condens. Matter 29 465901 (2017);
         "P. Giannozzi et al., J. Chem. Phys. 152 154105 (2020);
          URL http://www.quantum-espresso.org", 
     in publications or presentations arising from this work. More details at
     http://www.quantum-espresso.org/quote

     Parallel version (MPI & OpenMP), running on       2 processor cores
     Number of MPI processes:                 2
     Threads/MPI process:                     1

     MPI processes distributed on     1 nodes
     R & G space division:  proc/nbgrp/npool/nimage =       2
     312 MiB available memory on the printing compute node when the environment starts

     Reading input from pw.bands.25.in

     Current dimensions of program PWSCF are:
     Max number of different atomic species (ntypx) = 10
     Max number of k-points (npk) =  40000
     Max angular momentum in pseudopotentials (lmaxx) =  4

     Atomic positions and unit cell read from directory:
     ./outputs/gaalas25.save/

     file Ga.pbe-dn-kjpaw_psl.1.0.0.UPF: wavefunction(s)  4S renormalized
     file Al.pbe-n-kjpaw_psl.1.0.0.UPF: wavefunction(s)  3S 3P renormalized

     IMPORTANT: XC functional enforced from input :
     Exchange-correlation= PBE
                           (   1   4   3   4   0   0   0)
     Any further DFT definition will be discarded
     Please, verify this is what you really want

     Message from routine setup:
     using ibrav=0 with symmetry is DISCOURAGED, use correct ibrav instead

     Subspace diagonalization in iterative solution of the eigenvalue problem:
     a serial algorithm will be used


     Parallelization info
     --------------------
     sticks:   dense  smooth     PW     G-vecs:    dense   smooth      PW
     Min         744     744    218                21909    21909    3488
     Max         745     745    219                21910    21910    3491
     Sum        1489    1489    437                43819    43819    6979

     Using Slab Decomposition



     bravais-lattice index     =            0
     lattice parameter (alat)  =      10.8663  a.u.
     unit-cell volume          =    1283.0421 (a.u.)^3
     number of atoms/cell      =            8
     number of atomic types    =            3
     number of electrons       =        62.00
     number of Kohn-Sham states=           64
     kinetic-energy cutoff     =      40.0000  Ry
     charge density cutoff     =     160.0000  Ry
     Exchange-correlation= PBE
                           (   1   4   3   4   0   0   0)

     celldm(1)=  10.866265  celldm(2)=   0.000000  celldm(3)=   0.000000
     celldm(4)=   0.000000  celldm(5)=   0.000000  celldm(6)=   0.000000

     crystal axes: (cart. coord. in units of alat)
               a(1) = (   1.000000   0.000000   0.000000 )  
               a(2) = (   0.000000   1.000000   0.000000 )  
               a(3) = (   0.000000   0.000000   1.000000 )  

     reciprocal axes: (cart. coord. in units 2 pi/alat)
               b(1) = (  1.000000  0.000000  0.000000 )  
               b(2) = (  0.000000  1.000000  0.000000 )  
               b(3) = (  0.000000  0.000000  1.000000 )  


     PseudoPot. # 1 for As read from file:
     ../Pseudopotentials/As.pbe-n-kjpaw_psl.1.0.0.UPF
     MD5 check sum: 21b474db91924651be503153fb2dbf55
     Pseudo is Projector augmented-wave + core cor, Zval =  5.0
     Generated using &quot;atomic&quot; code by A. Dal Corso  v.6.3
     Shape of augmentation charge: PSQ
     Using radial grid of 1209 points,  4 beta functions with: 
                l(1) =   0
                l(2) =   0
                l(3) =   1
                l(4) =   1
     Q(r) pseudized with 0 coefficients 


     PseudoPot. # 2 for Ga read from file:
     ../Pseudopotentials/Ga.pbe-dn-kjpaw_psl.1.0.0.UPF
     MD5 check sum: 50ce49cbf7e0a40ad8623bf41840a268
     Pseudo is Projector augmented-wave + core cor, Zval = 13.0
     Generated using &quot;atomic&quot; code by A. Dal Corso  v.6.3
     Shape of augmentation charge: PSQ
     Using radial grid of 1205 points,  6 beta functions with: 
                l(1) =   0
                l(2) =   0
                l(3) =   1
                l(4) =   1
                l(5) =   2
                l(6) =   2
     Q(r) pseudized with 0 coefficients 


     PseudoPot. # 3 for Al read from file:
     ../Pseudopotentials/Al.pbe-n-kjpaw_psl.1.0.0.UPF
     MD5 check sum: 502b6b27b9c6270cab5dd1084b96fa6d
     Pseudo is Projector augmented-wave + core cor, Zval =  3.0
     Generated using &quot;atomic&quot; code by A. Dal Corso  v.6.3
     Shape of augmentation charge: PSQ
     Using radial grid of 1135 points,  6 beta functions with: 
                l(1) =   0
                l(2) =   0
                l(3) =   1
                l(4) =   1
                l(5) =   2
                l(6) =   2
     Q(r) pseudized with 0 coefficients 


     atomic species   valence    mass     pseudopotential
        As             5.00    74.92100     As( 1.00)
        Ga            13.00    69.72300     Ga( 1.00)
        Al             3.00    26.98100     Al( 1.00)

     24 Sym. Ops. (no inversion) found (16 have fractional translation)



   Cartesian axes

     site n.     atom                  positions (alat units)
         1           As  tau(   1) = (   0.2500000   0.2500000   0.2500000  )
         2           As  tau(   2) = (   0.2500000   0.7500000   0.7500000  )
         3           As  tau(   3) = (   0.7500000   0.2500000   0.7500000  )
         4           As  tau(   4) = (   0.7500000   0.7500000   0.2500000  )
         5           Ga  tau(   5) = (   0.0000000   0.0000000   0.0000000  )
         6           Ga  tau(   6) = (   0.0000000   0.5000000   0.5000000  )
         7           Ga  tau(   7) = (   0.5000000   0.0000000   0.5000000  )
         8           Al  tau(   8) = (   0.5000000   0.5000000   0.0000000  )

     number of k points=    81  Marzari-Vanderbilt smearing, width (Ry)=  0.0050
                       cart. coord. in units 2pi/alat
        k(    1) = (   0.0000000   0.0000000   0.0000000), wk =   0.0246914
        k(    2) = (   0.0250000   0.0000000   0.0250000), wk =   0.0246914
        k(    3) = (   0.0500000   0.0000000   0.0500000), wk =   0.0246914
        k(    4) = (   0.0750000   0.0000000   0.0750000), wk =   0.0246914
        k(    5) = (   0.1000000   0.0000000   0.1000000), wk =   0.0246914
        k(    6) = (   0.1250000   0.0000000   0.1250000), wk =   0.0246914
        k(    7) = (   0.1500000   0.0000000   0.1500000), wk =   0.0246914
        k(    8) = (   0.1750000   0.0000000   0.1750000), wk =   0.0246914
        k(    9) = (   0.2000000   0.0000000   0.2000000), wk =   0.0246914
        k(   10) = (   0.2250000   0.0000000   0.2250000), wk =   0.0246914
        k(   11) = (   0.2500000   0.0000000   0.2500000), wk =   0.0246914
        k(   12) = (   0.2750000   0.0000000   0.2750000), wk =   0.0246914
        k(   13) = (   0.3000000   0.0000000   0.3000000), wk =   0.0246914
        k(   14) = (   0.3250000   0.0000000   0.3250000), wk =   0.0246914
        k(   15) = (   0.3500000   0.0000000   0.3500000), wk =   0.0246914
        k(   16) = (   0.3750000   0.0000000   0.3750000), wk =   0.0246914
        k(   17) = (   0.4000000   0.0000000   0.4000000), wk =   0.0246914
        k(   18) = (   0.4250000   0.0000000   0.4250000), wk =   0.0246914
        k(   19) = (   0.4500000   0.0000000   0.4500000), wk =   0.0246914
        k(   20) = (   0.4750000   0.0000000   0.4750000), wk =   0.0246914
        k(   21) = (   0.5000000   0.0000000   0.5000000), wk =   0.0246914
        k(   22) = (   0.5000000   0.0125000   0.5125000), wk =   0.0246914
        k(   23) = (   0.5000000   0.0250000   0.5250000), wk =   0.0246914
        k(   24) = (   0.5000000   0.0375000   0.5375000), wk =   0.0246914
        k(   25) = (   0.5000000   0.0500000   0.5500000), wk =   0.0246914
        k(   26) = (   0.5000000   0.0625000   0.5625000), wk =   0.0246914
        k(   27) = (   0.5000000   0.0750000   0.5750000), wk =   0.0246914
        k(   28) = (   0.5000000   0.0875000   0.5875000), wk =   0.0246914
        k(   29) = (   0.5000000   0.1000000   0.6000000), wk =   0.0246914
        k(   30) = (   0.5000000   0.1125000   0.6125000), wk =   0.0246914
        k(   31) = (   0.5000000   0.1250000   0.6250000), wk =   0.0246914
        k(   32) = (   0.5000000   0.1375000   0.6375000), wk =   0.0246914
        k(   33) = (   0.5000000   0.1500000   0.6500000), wk =   0.0246914
        k(   34) = (   0.5000000   0.1625000   0.6625000), wk =   0.0246914
        k(   35) = (   0.5000000   0.1750000   0.6750000), wk =   0.0246914
        k(   36) = (   0.5000000   0.1875000   0.6875000), wk =   0.0246914
        k(   37) = (   0.5000000   0.2000000   0.7000000), wk =   0.0246914
        k(   38) = (   0.5000000   0.2125000   0.7125000), wk =   0.0246914
        k(   39) = (   0.5000000   0.2250000   0.7250000), wk =   0.0246914
        k(   40) = (   0.5000000   0.2375000   0.7375000), wk =   0.0246914
        k(   41) = (   0.5000000   0.2500000   0.7500000), wk =   0.0246914
        k(   42) = (   0.4937500   0.2562500   0.7495000), wk =   0.0246914
        k(   43) = (   0.4875000   0.2625000   0.7490000), wk =   0.0246914
        k(   44) = (   0.4812500   0.2687500   0.7485000), wk =   0.0246914
        k(   45) = (   0.4750000   0.2750000   0.7480000), wk =   0.0246914
        k(   46) = (   0.4687500   0.2812500   0.7475000), wk =   0.0246914
        k(   47) = (   0.4625000   0.2875000   0.7470000), wk =   0.0246914
        k(   48) = (   0.4562500   0.2937500   0.7465000), wk =   0.0246914
        k(   49) = (   0.4500000   0.3000000   0.7460000), wk =   0.0246914
        k(   50) = (   0.4437500   0.3062500   0.7455000), wk =   0.0246914
        k(   51) = (   0.4375000   0.3125000   0.7450000), wk =   0.0246914
        k(   52) = (   0.4312500   0.3187500   0.7445000), wk =   0.0246914
        k(   53) = (   0.4250000   0.3250000   0.7440000), wk =   0.0246914
        k(   54) = (   0.4187500   0.3312500   0.7435000), wk =   0.0246914
        k(   55) = (   0.4125000   0.3375000   0.7430000), wk =   0.0246914
        k(   56) = (   0.4062500   0.3437500   0.7425000), wk =   0.0246914
        k(   57) = (   0.4000000   0.3500000   0.7420000), wk =   0.0246914
        k(   58) = (   0.3937500   0.3562500   0.7415000), wk =   0.0246914
        k(   59) = (   0.3875000   0.3625000   0.7410000), wk =   0.0246914
        k(   60) = (   0.3812500   0.3687500   0.7405000), wk =   0.0246914
        k(   61) = (   0.3750000   0.3750000   0.7400000), wk =   0.0246914
        k(   62) = (   0.3562500   0.3562500   0.7030000), wk =   0.0246914
        k(   63) = (   0.3375000   0.3375000   0.6660000), wk =   0.0246914
        k(   64) = (   0.3187500   0.3187500   0.6290000), wk =   0.0246914
        k(   65) = (   0.3000000   0.3000000   0.5920000), wk =   0.0246914
        k(   66) = (   0.2812500   0.2812500   0.5550000), wk =   0.0246914
        k(   67) = (   0.2625000   0.2625000   0.5180000), wk =   0.0246914
        k(   68) = (   0.2437500   0.2437500   0.4810000), wk =   0.0246914
        k(   69) = (   0.2250000   0.2250000   0.4440000), wk =   0.0246914
        k(   70) = (   0.2062500   0.2062500   0.4070000), wk =   0.0246914
        k(   71) = (   0.1875000   0.1875000   0.3700000), wk =   0.0246914
        k(   72) = (   0.1687500   0.1687500   0.3330000), wk =   0.0246914
        k(   73) = (   0.1500000   0.1500000   0.2960000), wk =   0.0246914
        k(   74) = (   0.1312500   0.1312500   0.2590000), wk =   0.0246914
        k(   75) = (   0.1125000   0.1125000   0.2220000), wk =   0.0246914
        k(   76) = (   0.0937500   0.0937500   0.1850000), wk =   0.0246914
        k(   77) = (   0.0750000   0.0750000   0.1480000), wk =   0.0246914
        k(   78) = (   0.0562500   0.0562500   0.1110000), wk =   0.0246914
        k(   79) = (   0.0375000   0.0375000   0.0740000), wk =   0.0246914
        k(   80) = (   0.0187500   0.0187500   0.0370000), wk =   0.0246914
        k(   81) = (   0.0000000   0.0000000   0.0000000), wk =   0.0246914

     Dense  grid:    43819 G-vectors     FFT dimensions: (  48,  48,  48)

     Estimated max dynamical RAM per process >      81.73 MB

     Estimated total dynamical RAM >     163.46 MB

     Check: negative core charge=   -0.000002

     The potential is recalculated from file :
     ./outputs/gaalas25.save/charge-density

     Starting wfcs are   47 randomized atomic wfcs +   17 random wfcs
     Checking if some PAW data can be deallocated... 

     Band Structure Calculation
     Davidson diagonalization with overlap

     ethr =  1.61E-11,  avg # of iterations = 37.5

     total cpu time spent up to now is      507.5 secs

     End of band structure calculation

          k = 0.0000 0.0000 0.0000 (  5449 PWs)   bands (ev):

    -8.8759  -8.8759  -8.8759  -8.7961  -8.7961  -8.7961  -8.7687  -8.7687
    -8.7687  -8.7623  -8.7546  -8.7546  -8.7363  -8.7363  -8.7315  -6.4949
    -4.3101  -4.3101  -4.3101  -0.8090  -0.8090  -0.0668   3.3021   3.3021
     3.3021   3.3085   3.3085   3.3085   5.7328   5.7328   5.7328   6.2012
     7.2897   7.2897   7.2897   7.3218   7.3218   8.0974   9.5403   9.5403
     9.5403  13.4792  15.5436  15.5436  15.5646  15.5646  15.5646  15.6489
    15.6489  15.6489  16.3488  16.3488  16.6924  17.1635  17.1635  17.1635
    18.3812  18.3812  18.3812  18.8627  18.8627  18.8627  19.1145  19.1145

          k = 0.0250 0.0000 0.0250 (  5461 PWs)   bands (ev):

    -8.8759  -8.8758  -8.8757  -8.7964  -8.7962  -8.7961  -8.7689  -8.7689
    -8.7688  -8.7622  -8.7546  -8.7545  -8.7364  -8.7363  -8.7316  -6.4905
    -4.3168  -4.3156  -4.3096  -0.8042  -0.7984  -0.0601   3.2788   3.2986
     3.3009   3.3014   3.3072   3.3112   5.5768   5.7166   5.7297   6.3412
     7.2765   7.2910   7.3104   7.3596   7.3647   8.1159   9.5391   9.5445
     9.5609  13.5069  15.4527  15.4816  15.5172  15.5280  15.5331  15.6029
    15.6200  15.6284  16.3310  16.3511  16.6215  17.1725  17.1812  17.2291
    18.3292  18.3517  18.3814  18.7952  18.8719  18.9095  19.0346  19.0847

          k = 0.0500 0.0000 0.0500 (  5473 PWs)   bands (ev):

    -8.8757  -8.8756  -8.8752  -8.7972  -8.7962  -8.7961  -8.7694  -8.7692
    -8.7690  -8.7620  -8.7545  -8.7543  -8.7366  -8.7364  -8.7318  -6.4773
    -4.3363  -4.3317  -4.3082  -0.7901  -0.7673  -0.0402   3.2060   3.2876
     3.2903   3.2922   3.3030   3.3225   5.2937   5.6718   5.7235   6.5791
     7.2832   7.3051   7.3611   7.4480   7.4704   8.1717   9.5371   9.5579
     9.6233  13.5881  15.2827  15.2921  15.3934  15.3962  15.4199  15.4738
    15.5347  15.5760  16.3043  16.3393  16.4677  17.1936  17.2129  17.3897
    18.2513  18.2856  18.3798  18.6297  18.9067  18.9448  18.9489  19.1443

          k = 0.0750 0.0000 0.0750 (  5477 PWs)   bands (ev):

    -8.8755  -8.8751  -8.8744  -8.7984  -8.7961  -8.7960  -8.7701  -8.7698
    -8.7694  -8.7616  -8.7543  -8.7540  -8.7368  -8.7365  -8.7320  -6.4554
    -4.3678  -4.3576  -4.3062  -0.7680  -0.7173  -0.0076   3.0954   3.2657
     3.2735   3.2823   3.2978   3.3424   4.9837   5.6007   5.7136   6.8150
     7.3204   7.3331   7.4375   7.5589   7.6437   8.2680   9.5372   9.5802
     9.7274  13.7179  14.9874  15.0708  15.1086  15.2022  15.2990  15.3306
    15.4007  15.4958  16.2488  16.2810  16.3301  17.2016  17.2670  17.5437
    18.1943  18.2490  18.4070  18.4560  18.8413  18.8927  19.0759  19.2634

          k = 0.1000 0.0000 0.1000 (  5489 PWs)   bands (ev):

    -8.8753  -8.8745  -8.8733  -8.8000  -8.7959  -8.7958  -8.7712  -8.7705
    -8.7699  -8.7611  -8.7541  -8.7536  -8.7371  -8.7366  -8.7324  -6.4248
    -4.4095  -4.3923  -4.3042  -0.7394  -0.6510   0.0369   2.9598   3.2357
     3.2468   3.2759   3.2943   3.3704   4.6652   5.5030   5.6979   7.0299
     7.3719   7.3882   7.5399   7.6942   7.8588   8.4103   9.5426   9.6111
     9.8707  13.8883  14.6014  14.7205  14.8524  14.9734  15.1585  15.1624
    15.2376  15.3839  16.0289  16.2484  16.2623  17.2020  17.3431  17.5420
    18.1343  18.2848  18.3793  18.5005  18.7698  18.8640  19.2375  19.4132

          k = 0.1250 0.0000 0.1250 (  5489 PWs)   bands (ev):

    -8.8749  -8.8737  -8.8718  -8.8021  -8.7958  -8.7956  -8.7725  -8.7714
    -8.7705  -8.7604  -8.7538  -8.7531  -8.7375  -8.7368  -8.7328  -6.3858
    -4.4589  -4.4338  -4.3028  -0.7060  -0.5717   0.0920   2.8116   3.1985
     3.2121   3.2760   3.2961   3.4062   4.3449   5.3805   5.6790   7.2209
     7.4202   7.4868   7.6674   7.8522   8.0922   8.6100   9.5570   9.6514
    10.0484  14.0638  14.1935  14.2889  14.6272  14.7311  14.9643  15.0083
    15.0670  15.2593  15.7702  16.1831  16.1954  17.2097  17.3817  17.4369
    18.0592  18.1510  18.6150  18.6465  18.7343  18.8941  19.4117  19.5817

          k = 0.1500 0.0000 0.1500 (  5473 PWs)   bands (ev):

    -8.8745  -8.8728  -8.8701  -8.8044  -8.7955  -8.7953  -8.7740  -8.7723
    -8.7711  -8.7595  -8.7534  -8.7524  -8.7379  -8.7369  -8.7333  -6.3385
    -4.5144  -4.4806  -4.3027  -0.6693  -0.4832   0.1553   2.6617   3.1552
     3.1707   3.2858   3.3063   3.4497   4.0282   5.2393   5.6550   7.3893
     7.4810   7.6128   7.8146   8.0288   8.3227   8.8745   9.5852   9.7006
    10.2530  13.6954  13.8313  14.3134  14.4067  14.4999  14.7439  14.8498
    14.8934  15.1275  15.5039  16.0853  16.1146  17.1535  17.2311  17.5443
    17.9787  18.0170  18.7060  18.7549  18.8587  19.1140  19.5887  19.7556

          k = 0.1750 0.0000 0.1750 (  5469 PWs)   bands (ev):

    -8.8741  -8.8717  -8.8681  -8.8069  -8.7953  -8.7950  -8.7757  -8.7734
    -8.7719  -8.7586  -8.7530  -8.7517  -8.7384  -8.7371  -8.7339  -6.2832
    -4.5737  -4.5312  -4.3053  -0.6307  -0.3894   0.2240   2.5185   3.1068
     3.1241   3.3087   3.3274   3.5005   3.7172   5.0789   5.6247   7.5131
     7.5772   7.7643   7.9770   8.2213   8.5419   9.1936   9.6319   9.7586
    10.4719  13.2297  13.3641  14.1930  14.2179  14.5148  14.5645  14.6960
    14.7137  14.9875  15.2558  15.9678  16.0059  16.8998  17.2617  17.6217
    17.8798  17.9350  18.7305  18.7916  19.0610  19.4668  19.7463  19.9197

          k = 0.2000 0.0000 0.2000 (  5465 PWs)   bands (ev):

    -8.8736  -8.8705  -8.8660  -8.8096  -8.7950  -8.7947  -8.7775  -8.7747
    -8.7729  -8.7576  -8.7525  -8.7509  -8.7389  -8.7373  -8.7345  -6.2200
    -4.6350  -4.5840  -4.3122  -0.5909  -0.2942   0.2947   2.3887   3.0544
     3.0742   3.3445   3.3475   3.4346   3.5582   4.9038   5.5889   7.5898
     7.7140   7.9390   8.1542   8.4270   8.7563   9.5227   9.7255   9.8259
    10.6915  12.7639  12.8990  13.9835  13.9893  14.2955  14.4714  14.5262
    14.7841  14.8137  15.1280  15.8367  15.8731  16.6354  17.2916  17.5969
    17.7339  18.0236  18.7700  18.8068  19.2654  19.7783  19.8611  20.1126

          k = 0.2250 0.0000 0.2250 (  5465 PWs)   bands (ev):

    -8.8733  -8.8691  -8.8638  -8.8126  -8.7947  -8.7944  -8.7795  -8.7759
    -8.7740  -8.7566  -8.7520  -8.7501  -8.7394  -8.7376  -8.7352  -6.1495
    -4.6966  -4.6374  -4.3238  -0.5499  -0.2013   0.3641   2.2784   2.9922
     3.0219   3.1149   3.4048   3.4305   3.6234   4.7167   5.5457   7.6649
     7.8469   8.1332   8.3456   8.6402   8.9700   9.7006   9.9020  10.0131
    10.8936  12.3066  12.4396  13.7585  13.7769  14.0997  14.2552  14.3301
    14.5753  14.8594  15.2345  15.7037  15.7150  16.3815  17.2679  17.5556
    17.5811  18.2097  18.8013  18.8126  19.4582  19.8579  19.9022  20.4473

          k = 0.2500 0.0000 0.2500 (  5489 PWs)   bands (ev):

    -8.8730  -8.8676  -8.8616  -8.8157  -8.7944  -8.7940  -8.7815  -8.7773
    -8.7752  -8.7555  -8.7514  -8.7492  -8.7400  -8.7380  -8.7359  -6.0720
    -4.7570  -4.6904  -4.3423  -0.5074  -0.1139   0.4286   2.1906   2.8021
     2.9657   2.9695   3.4817   3.5028   3.6947   4.5215   5.4950   7.7412
     7.9684   8.3429   8.5529   8.8569   9.1827   9.7987   9.9869  10.4072
    11.0634  11.8680  12.0000  13.5521  13.5530  13.9347  14.0045  14.1220
    14.3381  14.8907  15.3928  15.5371  15.6291  16.1272  17.1468  17.4099
    17.5911  18.4479  18.7676  18.8469  19.6228  19.7826  19.8550  20.3332

          k = 0.2750 0.0000 0.2750 (  5468 PWs)   bands (ev):

    -8.8727  -8.8660  -8.8591  -8.8189  -8.7941  -8.7937  -8.7833  -8.7786
    -8.7764  -8.7542  -8.7508  -8.7483  -8.7406  -8.7383  -8.7366  -5.9881
    -4.8143  -4.7409  -4.3685  -0.4623  -0.0339   0.4862   2.1281   2.5308
     2.9090   2.9192   3.5806   3.5979   3.7721   4.3218   5.4377   7.8215
     8.0781   8.5670   8.7793   9.0730   9.3944   9.9014  10.0812  10.8071
    11.1872  11.4655  11.5984  13.3203  13.3770  13.7347  13.8070  13.9047
    14.1070  14.9672  15.3466  15.3535  15.7891  15.8834  16.9840  17.2401
    17.6792  18.7058  18.7252  18.8683  19.6534  19.7361  19.7519  20.1112

          k = 0.3000 0.0000 0.3000 (  5472 PWs)   bands (ev):

    -8.8725  -8.8643  -8.8568  -8.8220  -8.7937  -8.7934  -8.7850  -8.7800
    -8.7778  -8.7530  -8.7501  -8.7475  -8.7412  -8.7387  -8.7374  -5.8981
    -4.8683  -4.7888  -4.4038  -0.4133   0.0364   0.5339   2.0910   2.2686
     2.8594   2.8708   3.6984   3.7125   3.8550   4.1203   5.3731   7.9043
     8.1753   8.7912   9.0179   9.2737   9.5799  10.0186  10.1845  11.0630
    11.1974  11.2440  11.2945  13.0814  13.2481  13.4595  13.6713  13.7132
    13.8721  15.0462  15.1531  15.2860  15.6499  16.0218  16.7994  17.0551
    17.7943  18.6130  18.8428  19.0480  19.5113  19.6143  19.7902  19.9318

          k = 0.3250 0.0000 0.3250 (  5486 PWs)   bands (ev):

    -8.8724  -8.8624  -8.8547  -8.8252  -8.7933  -8.7931  -8.7865  -8.7813
    -8.7792  -8.7518  -8.7495  -8.7466  -8.7417  -8.7391  -8.7381  -5.8029
    -4.9178  -4.8331  -4.4488  -0.3584   0.0963   0.5705   2.0075   2.0923
     2.8141   2.8254   3.8337   3.8440   3.9185   3.9430   5.3014   7.9874
     8.2597   8.9908   9.2618   9.4515   9.7008  10.1536  10.2967  10.8167
    10.9726  11.3212  11.4901  12.8413  13.1267  13.2517  13.4246  13.6453
    13.6502  14.9436  14.9710  15.4255  15.4267  16.2473  16.6167  16.8663
    17.9243  18.5052  18.7870  19.3734  19.3752  19.5040  19.7310  19.8345

          k = 0.3500 0.0000 0.3500 (  5484 PWs)   bands (ev):

    -8.8724  -8.8604  -8.8528  -8.8283  -8.7929  -8.7928  -8.7877  -8.7826
    -8.7807  -8.7506  -8.7487  -8.7458  -8.7422  -8.7396  -8.7389  -5.7031
    -4.9619  -4.8730  -4.5031  -0.2959   0.1460   0.5943   1.7780   2.1049
     2.7737   2.7850   3.7185   3.9813   3.9891   4.0372   5.2233   8.0714
     8.3298   9.1042   9.4676   9.6257   9.7329  10.3093  10.4180  10.7149
    10.8336  11.3306  11.6669  12.6065  12.8739  13.1632  13.1896  13.5563
    13.6034  14.7360  14.8331  15.2196  15.6705  16.3520  16.5549  16.6824
    18.0695  18.3969  18.6999  19.2461  19.3899  19.5708  19.7565  19.7944

          k = 0.3750 0.0000 0.3750 (  5488 PWs)   bands (ev):

    -8.8723  -8.8582  -8.8510  -8.8313  -8.7925  -8.7924  -8.7886  -8.7838
    -8.7822  -8.7494  -8.7480  -8.7452  -8.7427  -8.7402  -8.7397  -5.5999
    -5.0000  -4.9083  -4.5668  -0.2239   0.1859   0.6032   1.5648   2.1465
     2.7386   2.7500   3.5229   4.1220   4.1398   4.1490   5.1397   8.1533
     8.3824   9.0666   9.4261   9.8438   9.8885  10.4753  10.5489  10.7781
    10.8408  11.3218  11.7155  12.3769  12.6048  12.8876  12.9823  13.5835
    13.7690  14.5363  14.6816  15.0240  15.9273  16.2230  16.5081  16.7472
    18.2244  18.2980  18.6024  19.1334  19.2942  19.4724  19.6684  19.8216

          k = 0.4000 0.0000 0.4000 (  5466 PWs)   bands (ev):

    -8.8723  -8.8558  -8.8495  -8.8343  -8.7921  -8.7919  -8.7892  -8.7848
    -8.7836  -8.7482  -8.7472  -8.7445  -8.7430  -8.7408  -8.7404  -5.4942
    -5.0318  -4.9388  -4.6386  -0.1410   0.2168   0.5939   1.3777   2.2117
     2.7092   2.7207   3.3334   4.2287   4.2895   4.2980   5.0503   8.2307
     8.4138   8.9201   9.2398  10.1064  10.1537  10.6491  10.6895  10.9268
    10.9486  11.3078  11.6810  12.1557  12.3427  12.6016  12.7153  13.5730
    14.1326  14.3605  14.5445  14.8475  16.0108  16.2379  16.3609  16.9806
    18.2162  18.3717  18.5319  19.0391  19.1964  19.3346  19.5685  19.5869

          k = 0.4250 0.0000 0.4250 (  5470 PWs)   bands (ev):

    -8.8725  -8.8535  -8.8483  -8.8373  -8.7917  -8.7914  -8.7895  -8.7859
    -8.7851  -8.7471  -8.7465  -8.7440  -8.7434  -8.7414  -8.7412  -5.3877
    -5.0569  -4.9657  -4.7169  -0.0474   0.2395   0.5596   1.2257   2.2974
     2.6858   2.6973   3.1515   4.3313   4.4263   4.4401   4.9569   8.2944
     8.4206   8.7416   9.0616  10.3918  10.4353  10.8340  10.8412  11.0910
    11.0954  11.2998  11.6107  11.9402  12.0812  12.3066  12.4271  13.5609
    14.2215  14.3545  14.6188  14.6737  15.9083  16.2373  16.3743  17.2457
    18.1516  18.3916  18.5913  18.9643  19.0725  19.2016  19.3111  19.4473

          k = 0.4500 0.0000 0.4500 (  5456 PWs)   bands (ev):

    -8.8725  -8.8511  -8.8474  -8.8401  -8.7911  -8.7908  -8.7897  -8.7868
    -8.7864  -8.7460  -8.7457  -8.7437  -8.7436  -8.7420  -8.7419  -5.2821
    -5.0750  -4.9920  -4.7950   0.0570   0.2550   0.4949   1.1186   2.4018
     2.6692   2.6804   2.9792   4.4352   4.5381   4.5563   4.8598   8.3304
     8.4158   8.5826   8.9360  10.6845  10.7171  11.0032  11.0350  11.2268
    11.2364  11.3094  11.5372  11.7352  11.8309  12.0075  12.1374  13.5350
    14.1476  14.2571  14.5248  15.0529  15.8231  16.1498  16.3923  17.5444
    18.1057  18.3423  18.6433  18.9106  18.9567  19.0732  19.1188  19.2986

          k = 0.4750 0.0000 0.4750 (  5456 PWs)   bands (ev):

    -8.8726  -8.8486  -8.8469  -8.8428  -8.7905  -8.7903  -8.7898  -8.7875
    -8.7875  -8.7451  -8.7450  -8.7438  -8.7437  -8.7426  -8.7425  -5.1813
    -5.0860  -5.0286  -4.8589   0.1692   0.2639   0.4016   1.0584   2.5214
     2.6593   2.6698   2.8184   4.5377   4.6119   4.6319   4.7629   8.3215
     8.4277   8.4745   8.8680  10.9657  10.9793  11.1773  11.2355  11.2957
    11.3384  11.3574  11.4889  11.5414  11.5921  11.7153  11.8557  13.5007
    14.1379  14.1776  14.4059  15.4777  15.7709  16.0954  16.2527  17.8520
    18.0777  18.3063  18.4775  18.8781  18.9139  18.9744  19.0492  19.2428

          k = 0.5000 0.0000 0.5000 (  5472 PWs)   bands (ev):

    -8.8726  -8.8468  -8.8468  -8.8447  -8.7901  -8.7901  -8.7899  -8.7881
    -8.7878  -8.7447  -8.7445  -8.7440  -8.7440  -8.7428  -8.7428  -5.0952
    -5.0897  -5.0897  -4.8840   0.2668   0.2668   0.3088   1.0394   2.6214
     2.6661   2.6661   2.6942   4.6205   4.6374   4.6374   4.7018   8.3101
     8.4357   8.4357   8.8472  11.1321  11.1321  11.2997  11.3388  11.3634
    11.3634  11.4051  11.4083  11.4256  11.5198  11.5198  11.6601  13.4833
    14.1428  14.1428  14.3472  15.7161  15.7847  16.0765  16.0765  18.0678
    18.0678  18.2876  18.2983  18.8671  18.8671  18.9854  19.0162  19.2453

          k = 0.5000 0.0125 0.5125 (  5462 PWs)   bands (ev):

    -8.8726  -8.8471  -8.8468  -8.8444  -8.7902  -8.7901  -8.7899  -8.7880
    -8.7877  -8.7447  -8.7446  -8.7440  -8.7439  -8.7428  -8.7427  -5.1202
    -5.0925  -5.0641  -4.8807   0.2403   0.2635   0.3319   1.0389   2.6065
     2.6442   2.6889   2.7244   4.6010   4.6261   4.6541   4.7104   8.3104
     8.4361   8.4368   8.8494  11.0740  11.1109  11.2601  11.2920  11.3194
    11.3574  11.3785  11.4242  11.5173  11.5501  11.5604  11.7236  13.4914
    14.1473  14.1544  14.3619  15.6923  15.7579  16.0947  16.0986  18.0314
    18.0402  18.2437  18.3582  18.8704  18.8735  18.9784  19.0380  19.2512

          k = 0.5000 0.0250 0.5250 (  5460 PWs)   bands (ev):

    -8.8726  -8.8479  -8.8468  -8.8436  -8.7905  -8.7902  -8.7898  -8.7880
    -8.7875  -8.7449  -8.7448  -8.7440  -8.7437  -8.7428  -8.7425  -5.1472
    -5.1005  -5.0355  -4.8713   0.1973   0.2534   0.3649   1.0373   2.5863
     2.6198   2.7322   2.7725   4.5720   4.6005   4.6737   4.7264   8.3112
     8.4356   8.4381   8.8550  10.9485  11.0472  11.1461  11.2295  11.2709
    11.3298  11.4010  11.4546  11.5781  11.6070  11.6872  11.8536  13.5136
    14.1529  14.1806  14.3946  15.6328  15.6921  16.1349  16.1456  17.9444
    17.9773  18.2065  18.4024  18.8548  18.8906  18.9965  19.0830  19.2736

          k = 0.5000 0.0375 0.5375 (  5468 PWs)   bands (ev):

    -8.8726  -8.8487  -8.8470  -8.8428  -8.7908  -8.7902  -8.7898  -8.7880
    -8.7872  -8.7451  -8.7450  -8.7440  -8.7434  -8.7428  -8.7423  -5.1734
    -5.1125  -5.0066  -4.8573   0.1502   0.2369   0.3955   1.0346   2.5708
     2.6025   2.7852   2.8287   4.5395   4.5687   4.6900   4.7418   8.3125
     8.4345   8.4394   8.8637  10.8039  10.9386  11.0418  11.1450  11.2429
    11.3015  11.4298  11.4916  11.6355  11.6645  11.8294  11.9997  13.5493
    14.1608  14.2212  14.4448  15.5568  15.6105  16.1769  16.1926  17.8450
    17.9028  18.1594  18.4051  18.7987  18.9020  19.0589  19.1435  19.3248

          k = 0.5000 0.0500 0.5500 (  5462 PWs)   bands (ev):

    -8.8727  -8.8496  -8.8471  -8.8419  -8.7911  -8.7903  -8.7898  -8.7880
    -8.7867  -8.7454  -8.7452  -8.7440  -8.7431  -8.7427  -8.7421  -5.1986
    -5.1268  -4.9777  -4.8399   0.1007   0.2151   0.4228   1.0311   2.5609
     2.5926   2.8466   2.8926   4.5048   4.5330   4.7035   4.7555   8.3145
     8.4335   8.4404   8.8748  10.6583  10.8090  10.9515  11.0535  11.2208
    11.2757  11.4632  11.5314  11.6933  11.7179  11.9703  12.1489  13.6014
    14.1795  14.2804  14.5093  15.4763  15.5251  16.2107  16.2289  17.7566
    17.8328  18.1029  18.3728  18.7188  18.8823  19.1439  19.2260  19.4100

          k = 0.5000 0.0625 0.5625 (  5466 PWs)   bands (ev):

    -8.8727  -8.8504  -8.8473  -8.8410  -8.7914  -8.7903  -8.7897  -8.7880
    -8.7863  -8.7457  -8.7454  -8.7440  -8.7429  -8.7427  -8.7418  -5.2228
    -5.1425  -4.9490  -4.8204   0.0495   0.1884   0.4466   1.0267   2.5562
     2.5897   2.9154   2.9630   4.4672   4.4944   4.7131   4.7653   8.3161
     8.4316   8.4402   8.8873  10.5172  10.6777  10.8631  10.9588  11.2032
    11.2534  11.4993  11.5716  11.7471  11.7625  12.1046  12.2934  13.6644
    14.2030  14.3519  14.5794  15.3988  15.4451  16.2271  16.2430  17.6835
    17.7736  18.0418  18.3186  18.6269  18.8275  19.2356  19.3263  19.5178

          k = 0.5000 0.0750 0.5750 (  5462 PWs)   bands (ev):

    -8.8727  -8.8512  -8.8475  -8.8402  -8.7917  -8.7904  -8.7897  -8.7880
    -8.7858  -8.7459  -8.7456  -8.7439  -8.7428  -8.7425  -8.7415  -5.2459
    -5.1588  -4.9205  -4.7996  -0.0023   0.1579   0.4670   1.0217   2.5564
     2.5932   2.9909   3.0395   4.4280   4.4536   4.7191   4.7719   8.3165
     8.4283   8.4386   8.8999  10.3853  10.5532  10.7742  10.8629  11.1892
    11.2351  11.5370  11.6121  11.7961  11.7997  12.2313  12.4318  13.7393
    14.2370  14.4378  14.6509  15.3280  15.3832  16.2247  16.2317  17.6258
    17.7324  17.9848  18.2540  18.5320  18.7542  19.3265  19.4319  19.6370

          k = 0.5000 0.0875 0.5875 (  5464 PWs)   bands (ev):

    -8.8727  -8.8520  -8.8477  -8.8394  -8.7920  -8.7905  -8.7896  -8.7880
    -8.7854  -8.7462  -8.7457  -8.7439  -8.7428  -8.7423  -8.7412  -5.2677
    -5.1751  -4.8926  -4.7782  -0.0543   0.1247   0.4843   1.0163   2.5611
     2.6020   3.0723   3.1211   4.3871   4.4114   4.7211   4.7742   8.3125
     8.4231   8.4369   8.9115  10.2653  10.4401  10.6848  10.7665  11.1775
    11.2205  11.5759  11.6529  11.8285  11.8393  12.3489  12.5605  13.8235
    14.2784  14.5300  14.7067  15.2657  15.3576  16.1940  16.2028  17.5707
    17.7129  17.9352  18.1837  18.4403  18.6752  19.4103  19.5304  19.7574

          k = 0.5000 0.1000 0.6000 (  5472 PWs)   bands (ev):

    -8.8728  -8.8527  -8.8480  -8.8386  -8.7923  -8.7906  -8.7896  -8.7881
    -8.7849  -8.7465  -8.7459  -8.7439  -8.7428  -8.7420  -8.7410  -5.2882
    -5.1911  -4.8654  -4.7569  -0.1056   0.0896   0.4986   1.0103   2.5698
     2.6154   3.1584   3.2069   4.3450   4.3680   4.7194   4.7727   8.3007
     8.4144   8.4383   8.9213  10.1593  10.3387  10.5966  10.6707  11.1682
    11.2112  11.6154  11.6926  11.8496  11.8749  12.4577  12.6787  13.9164
    14.3258  14.6135  14.7296  15.2276  15.3893  16.1343  16.1639  17.5059
    17.7079  17.8939  18.1102  18.3611  18.6008  19.4826  19.6134  19.8731

          k = 0.5000 0.1125 0.6125 (  5468 PWs)   bands (ev):

    -8.8728  -8.8534  -8.8483  -8.8379  -8.7925  -8.7906  -8.7896  -8.7881
    -8.7845  -8.7467  -8.7461  -8.7438  -8.7428  -8.7418  -8.7407  -5.3073
    -5.2064  -4.8392  -4.7358  -0.1556   0.0538   0.5104   1.0043   2.5821
     2.6326   3.2490   3.2965   4.3026   4.3241   4.7137   4.7673   8.2782
     8.4009   8.4454   8.9297  10.0702  10.2528  10.5100  10.5766  11.1613
    11.2076  11.6549  11.7311  11.8653  11.9055  12.5590  12.7868  14.0149
    14.3763  14.6672  14.7194  15.2392  15.4812  16.0618  16.1151  17.4294
    17.7064  17.8572  18.0356  18.3082  18.5486  19.5377  19.6713  19.9835

          k = 0.5000 0.1250 0.6250 (  5460 PWs)   bands (ev):

    -8.8728  -8.8539  -8.8486  -8.8372  -8.7926  -8.7907  -8.7895  -8.7881
    -8.7841  -8.7469  -8.7462  -8.7438  -8.7428  -8.7415  -8.7404  -5.3250
    -5.2208  -4.8142  -4.7153  -0.2035   0.0181   0.5199   0.9981   2.5975
     2.6529   3.3427   3.3887   4.2604   4.2803   4.7039   4.7575   8.2447
     8.3815   8.4584   8.9377   9.9983  10.1814  10.4267  10.4850  11.1565
    11.2089  11.6936  11.7672  11.8762  11.9295  12.6526  12.8849  14.1161
    14.4178  14.6753  14.6960  15.3190  15.6204  15.9823  16.0609  17.3400
    17.6864  17.8179  17.9616  18.2910  18.5242  19.5679  19.6928  20.0862

          k = 0.5000 0.1375 0.6375 (  5476 PWs)   bands (ev):

    -8.8729  -8.8545  -8.8489  -8.8366  -8.7928  -8.7908  -8.7895  -8.7882
    -8.7838  -8.7472  -8.7463  -8.7438  -8.7428  -8.7413  -8.7402  -5.3412
    -5.2342  -4.7908  -4.6962  -0.2491  -0.0168   0.5273   0.9919   2.6147
     2.6750   3.4383   3.4822   4.2181   4.2360   4.6893   4.7432   8.2015
     8.3546   8.4751   8.9455   9.9424  10.1232  10.3452  10.3945  11.1534
    11.2147  11.7300  11.7978  11.8834  11.9475  12.7377  12.9683  14.2135
    14.4331  14.6523  14.6763  15.4504  15.7768  15.9066  16.0067  17.2387
    17.6358  17.7702  17.8890  18.3119  18.5288  19.5645  19.6651  20.1810

          k = 0.5000 0.1500 0.6500 (  5478 PWs)   bands (ev):

    -8.8730  -8.8550  -8.8492  -8.8361  -8.7929  -8.7909  -8.7895  -8.7883
    -8.7834  -8.7474  -8.7465  -8.7437  -8.7428  -8.7411  -8.7400  -5.3558
    -5.2465  -4.7690  -4.6780  -0.2914  -0.0499   0.5332   0.9860   2.6336
     2.6985   3.5349   3.5763   4.1780   4.1938   4.6703   4.7241   8.1516
     8.3210   8.4953   8.9555   9.9022  10.0783  10.2693  10.3092  11.1529
    11.2244  11.7633  11.8227  11.8924  11.9610  12.8181  13.0443  14.3001
    14.4117  14.6191  14.6927  15.6188  15.8100  15.9516  15.9946  17.1287
    17.5559  17.7193  17.8255  18.3658  18.5588  19.5205  19.5840  20.2698

          k = 0.5000 0.1625 0.6625 (  5480 PWs)   bands (ev):

    -8.8731  -8.8554  -8.8495  -8.8356  -8.7930  -8.7910  -8.7894  -8.7883
    -8.7831  -8.7475  -8.7466  -8.7437  -8.7428  -8.7409  -8.7398  -5.3688
    -5.2575  -4.7491  -4.6614  -0.3300  -0.0807   0.5377   0.9805   2.6531
     2.7224   3.6314   3.6698   4.1401   4.1534   4.6464   4.7004   8.0981
     8.2821   8.5177   8.9686   9.8740  10.0439  10.1982  10.2290  11.1537
    11.2367  11.7893  11.8408  11.9055  11.9717  12.8933  13.1105  14.3467
    14.3727  14.6061  14.7349  15.7413  15.8097  15.9180  16.1942  17.0130
    17.4574  17.6675  17.7709  18.4387  18.6045  19.4303  19.4550  20.3534

          k = 0.5000 0.1750 0.6750 (  5488 PWs)   bands (ev):

    -8.8731  -8.8557  -8.8498  -8.8352  -8.7931  -8.7911  -8.7894  -8.7884
    -8.7828  -8.7477  -8.7467  -8.7437  -8.7428  -8.7407  -8.7397  -5.3801
    -5.2672  -4.7313  -4.6467  -0.3645  -0.1086   0.5411   0.9755   2.6722
     2.7456   3.7266   3.7611   4.1055   4.1156   4.6175   4.6723   8.0442
     8.2400   8.5404   8.9843   9.8556  10.0185  10.1320  10.1552  11.1564
    11.2518  11.8016  11.8586  11.9199  11.9811  12.9630  13.1660  14.2986
    14.3625  14.6395  14.7840  15.6874  15.8892  16.0095  16.4100  16.8947
    17.3492  17.6186  17.7250  18.5183  18.6599  19.2783  19.3071  20.4250

          k = 0.5000 0.1875 0.6875 (  5496 PWs)   bands (ev):

    -8.8732  -8.8560  -8.8501  -8.8349  -8.7931  -8.7912  -8.7894  -8.7884
    -8.7826  -8.7479  -8.7468  -8.7437  -8.7428  -8.7406  -8.7395  -5.3898
    -5.2755  -4.7160  -4.6339  -0.3945  -0.1331   0.5436   0.9711   2.6907
     2.7676   3.8185   3.8477   4.0758   4.0822   4.5834   4.6398   7.9926
     8.1978   8.5625   9.0024   9.8432   9.9976  10.0739  10.0917  11.1608
    11.2682  11.8012  11.8797  11.9309  11.9913  13.0277  13.2115  14.2399
    14.3291  14.6995  14.8306  15.6487  15.8814  16.2039  16.6294  16.7852
    17.2381  17.5770  17.6913  18.5909  18.7172  19.0925  19.1404  20.4538

          k = 0.5000 0.2000 0.7000 (  5494 PWs)   bands (ev):

    -8.8733  -8.8562  -8.8503  -8.8346  -8.7931  -8.7913  -8.7893  -8.7885
    -8.7824  -8.7480  -8.7468  -8.7437  -8.7428  -8.7404  -8.7394  -5.3977
    -5.2823  -4.7031  -4.6231  -0.4195  -0.1536   0.5455   0.9674   2.7073
     2.7874   3.9058   3.9245   4.0494   4.0604   4.5452   4.6046   7.9465
     8.1589   8.5833   9.0223   9.8356   9.9758  10.0261  10.0429  11.1668
    11.2859  11.7950  11.9001  11.9375  12.0038  13.0881  13.2465  14.1851
    14.2878  14.7592  14.8733  15.6312  15.8910  16.3665  16.6910  16.8664
    17.1354  17.5478  17.6721  18.6238  18.7707  18.9245  18.9521  20.4397

          k = 0.5000 0.2125 0.7125 (  5498 PWs)   bands (ev):

    -8.8733  -8.8564  -8.8505  -8.8344  -8.7932  -8.7914  -8.7893  -8.7885
    -8.7823  -8.7481  -8.7469  -8.7436  -8.7428  -8.7403  -8.7393  -5.4039
    -5.2876  -4.6929  -4.6146  -0.4393  -0.1700   0.5468   0.9644   2.7212
     2.8038   3.9718   3.9854   4.0262   4.0696   4.5025   4.5667   7.9078
     8.1253   8.6011   9.0410   9.8304   9.9425   9.9924  10.0134  11.1720
    11.3012  11.7866  11.9157  11.9416  12.0158  13.1415  13.2691  14.1376
    14.2479  14.8033  14.9072  15.6352  15.9147  16.4054  16.7284  17.0427
    17.0824  17.5368  17.6700  18.5344  18.7215  18.8358  18.8716  20.4083

          k = 0.5000 0.2250 0.7250 (  5506 PWs)   bands (ev):

    -8.8734  -8.8565  -8.8506  -8.8342  -8.7932  -8.7913  -8.7893  -8.7886
    -8.7822  -8.7482  -8.7470  -8.7437  -8.7428  -8.7403  -8.7392  -5.4084
    -5.2915  -4.6856  -4.6085  -0.4536  -0.1818   0.5474   0.9621   2.7318
     2.8162   3.9793   4.0057   4.0544   4.1164   4.4592   4.5314   7.8785
     8.0996   8.6149   9.0564   9.8269   9.9083   9.9676  10.0017  11.1779
    11.3158  11.7788  11.9229  11.9459  12.0248  13.1881  13.2802  14.1002
    14.2158  14.8284  14.9311  15.6557  15.9461  16.3379  16.8450  16.9777
    17.2517  17.5707  17.6952  18.3550  18.5137  18.8564  18.9024  20.3782

          k = 0.5000 0.2375 0.7375 (  5510 PWs)   bands (ev):

    -8.8735  -8.8566  -8.8507  -8.8342  -8.7932  -8.7914  -8.7893  -8.7886
    -8.7821  -8.7482  -8.7470  -8.7437  -8.7429  -8.7402  -8.7392  -5.4111
    -5.2939  -4.6811  -4.6048  -0.4622  -0.1890   0.5478   0.9608   2.7384
     2.8240   3.9757   3.9947   4.1016   4.1646   4.4207   4.5027   7.8603
     8.0834   8.6236   9.0670   9.8256   9.8839   9.9527   9.9971  11.1810
    11.3238  11.7734  11.9249  11.9514  12.0313  13.2255  13.2798  14.0781
    14.1968  14.8416  14.9450  15.6802  15.9788  16.2652  16.8893  16.9831
    17.3370  17.6786  17.7505  18.1797  18.3193  18.8748  18.9332  20.3524

          k = 0.5000 0.2500 0.7500 (  5512 PWs)   bands (ev):

    -8.8735  -8.8566  -8.8507  -8.8342  -8.7932  -8.7914  -8.7893  -8.7886
    -8.7821  -8.7482  -8.7470  -8.7437  -8.7429  -8.7402  -8.7392  -5.4120
    -5.2947  -4.6795  -4.6034  -0.4651  -0.1915   0.5479   0.9602   2.7407
     2.8267   3.9740   3.9910   4.1192   4.1851   4.4036   4.4912   7.8538
     8.0776   8.6269   9.0713   9.8253   9.8751   9.9483   9.9948  11.1813
    11.3253  11.7713  11.9252  11.9539  12.0340  13.2441  13.2739  14.0706
    14.1903  14.8456  14.9481  15.6911  15.9949  16.2331  16.8751  17.0121
    17.3568  17.7625  17.7929  18.0914  18.2225  18.8813  18.9439  20.3437

          k = 0.4937 0.2562 0.7495 (  5512 PWs)   bands (ev):

    -8.8735  -8.8564  -8.8506  -8.8345  -8.7932  -8.7915  -8.7893  -8.7886
    -8.7823  -8.7481  -8.7469  -8.7436  -8.7428  -8.7402  -8.7392  -5.4064
    -5.2857  -4.6871  -4.6096  -0.4655  -0.1958   0.5228   0.9383   2.7635
     2.8495   3.9902   4.0098   4.1095   4.2072   4.4072   4.5001   7.8332
     8.0611   8.5999   9.0484   9.8339   9.8744   9.9512  10.0045  11.1581
    11.3101  11.7985  11.9369  11.9533  12.0260  13.2505  13.2732  14.1130
    14.2284  14.8436  14.9722  15.6707  15.9873  16.2361  16.8858  16.9902
    17.3148  17.7247  17.7713  18.0938  18.2217  18.8850  18.9448  20.3040

          k = 0.4875 0.2625 0.7490 (  5506 PWs)   bands (ev):

    -8.8735  -8.8562  -8.8505  -8.8348  -8.7933  -8.7915  -8.7893  -8.7886
    -8.7826  -8.7480  -8.7467  -8.7436  -8.7428  -8.7403  -8.7392  -5.4043
    -5.2725  -4.6949  -4.6159  -0.4654  -0.2000   0.4961   0.9192   2.7865
     2.8723   4.0030   4.0286   4.0875   4.2413   4.4076   4.5159   7.8091
     8.0474   8.5696   9.0216   9.8443   9.8785   9.9582  10.0165  11.1269
    11.3032  11.8151  11.9171  11.9655  12.0464  13.2454  13.2714  14.1628
    14.2757  14.8288  15.0122  15.6394  15.9944  16.2341  16.9068  16.9673
    17.2737  17.6811  17.7429  18.1050  18.2337  18.8845  18.9405  20.2494

          k = 0.4812 0.2687 0.7485 (  5503 PWs)   bands (ev):

    -8.8736  -8.8560  -8.8504  -8.8350  -8.7933  -8.7916  -8.7893  -8.7886
    -8.7828  -8.7479  -8.7465  -8.7435  -8.7428  -8.7403  -8.7393  -5.4049
    -5.2565  -4.7030  -4.6224  -0.4648  -0.2040   0.4678   0.9026   2.8094
     2.8952   4.0059   4.0472   4.0711   4.2751   4.4063   4.5374   7.7809
     8.0360   8.5367   8.9917   9.8551   9.8869   9.9688  10.0299  11.0913
    11.3014  11.8166  11.8949  11.9715  12.0881  13.2295  13.2694  14.2170
    14.3317  14.8106  15.0523  15.6000  16.0107  16.2282  16.9200  16.9565
    17.2349  17.6337  17.7085  18.1209  18.2580  18.8784  18.9314  20.1819

          k = 0.4750 0.2750 0.7480 (  5502 PWs)   bands (ev):

    -8.8736  -8.8558  -8.8503  -8.8353  -8.7933  -8.7917  -8.7893  -8.7886
    -8.7831  -8.7479  -8.7464  -8.7435  -8.7428  -8.7403  -8.7393  -5.4071
    -5.2385  -4.7112  -4.6289  -0.4638  -0.2077   0.4386   0.8881   2.8320
     2.9184   3.9896   4.0647   4.0732   4.3054   4.4045   4.5632   7.7490
     8.0269   8.5018   8.9602   9.8655   9.8992   9.9835  10.0444  11.0531
    11.3020  11.8030  11.8714  11.9856  12.1361  13.2061  13.2670  14.2738
    14.3962  14.7911  15.0910  15.5548  16.0323  16.2196  16.8982  16.9798
    17.2045  17.5849  17.6714  18.1396  18.2926  18.8629  18.9211  20.1053

          k = 0.4687 0.2812 0.7475 (  5498 PWs)   bands (ev):

    -8.8737  -8.8556  -8.8502  -8.8356  -8.7933  -8.7918  -8.7892  -8.7885
    -8.7833  -8.7478  -8.7463  -8.7434  -8.7428  -8.7403  -8.7393  -5.4103
    -5.2192  -4.7196  -4.6353  -0.4622  -0.2113   0.4088   0.8755   2.8544
     2.9422   3.9607   4.0792   4.0896   4.3307   4.4034   4.5924   7.7141
     8.0201   8.4658   8.9283   9.8753   9.9138  10.0027  10.0598  11.0131
    11.3038  11.7794  11.8464  12.0073  12.1860  13.1778  13.2635  14.3313
    14.4679  14.7752  15.1267  15.5064  16.0561  16.2119  16.8676  17.0039
    17.1906  17.5370  17.6330  18.1598  18.3346  18.8343  18.9138  20.0285

          k = 0.4625 0.2875 0.7470 (  5499 PWs)   bands (ev):

    -8.8737  -8.8554  -8.8502  -8.8358  -8.7934  -8.7919  -8.7892  -8.7885
    -8.7836  -8.7477  -8.7461  -8.7433  -8.7428  -8.7404  -8.7393  -5.4139
    -5.1991  -4.7285  -4.6419  -0.4601  -0.2146   0.3787   0.8644   2.8757
     2.9665   3.9272   4.0941   4.1089   4.3501   4.4044   4.6252   7.6770
     8.0151   8.4284   8.8955   9.8845   9.9286  10.0248  10.0777  10.9735
    11.3063  11.7501  11.8204  12.0337  12.2376  13.1452  13.2586  14.3872
    14.5393  14.7650  15.1584  15.4582  16.0782  16.2076  16.8340  17.0113
    17.2006  17.4915  17.5925  18.1797  18.3791  18.7941  18.9096  19.9513

          k = 0.4562 0.2937 0.7465 (  5498 PWs)   bands (ev):

    -8.8738  -8.8552  -8.8502  -8.8360  -8.7934  -8.7920  -8.7891  -8.7884
    -8.7838  -8.7477  -8.7460  -8.7432  -8.7428  -8.7404  -8.7393  -5.4177
    -5.1786  -4.7377  -4.6483  -0.4575  -0.2178   0.3488   0.8545   2.8958
     2.9918   3.8919   4.1097   4.1286   4.3616   4.4095   4.6604   7.6383
     8.0118   8.3909   8.8634   9.8935   9.9430  10.0496  10.0977  10.9340
    11.3093  11.7181  11.7941  12.0632  12.2887  13.1098  13.2530  14.4412
    14.6040  14.7675  15.1843  15.4126  16.0927  16.2129  16.8006  17.0015
    17.2320  17.4541  17.5521  18.2003  18.4246  18.7469  18.9068  19.8777

          k = 0.4500 0.3000 0.7460 (  5503 PWs)   bands (ev):

    -8.8738  -8.8550  -8.8502  -8.8362  -8.7934  -8.7921  -8.7891  -8.7884
    -8.7841  -8.7476  -8.7459  -8.7432  -8.7429  -8.7405  -8.7393  -5.4215
    -5.1579  -4.7474  -4.6545  -0.4546  -0.2207   0.3194   0.8458   2.9145
     3.0181   3.8555   4.1254   4.1479   4.3656   4.4188   4.6967   7.5987
     8.0097   8.3533   8.8323   9.9022   9.9564  10.0759  10.1197  10.8949
    11.3125  11.6846  11.7671  12.0938  12.3390  13.0721  13.2468  14.4904
    14.6503  14.7949  15.1986  15.3748  16.0955  16.2302  16.7648  16.9830
    17.2615  17.4359  17.5115  18.2200  18.4623  18.6990  18.9048  19.8073

          k = 0.4437 0.3062 0.7455 (  5500 PWs)   bands (ev):

    -8.8739  -8.8548  -8.8502  -8.8364  -8.7934  -8.7922  -8.7890  -8.7883
    -8.7843  -8.7476  -8.7458  -8.7431  -8.7429  -8.7405  -8.7392  -5.4252
    -5.1371  -4.7575  -4.6604  -0.4512  -0.2233   0.2908   0.8382   2.9320
     3.0458   3.8189   4.1409   4.1669   4.3651   4.4300   4.7342   7.5592
     8.0087   8.3168   8.8025   9.9112   9.9693  10.1033  10.1449  10.8564
    11.3161  11.6509  11.7403  12.1265  12.3884  13.0338  13.2410  14.5318
    14.6803  14.8505  15.1955  15.3542  16.0905  16.2575  16.7304  16.9647
    17.2639  17.4535  17.4760  18.2377  18.4792  18.6679  18.9035  19.7409

          k = 0.4375 0.3125 0.7450 (  5501 PWs)   bands (ev):

    -8.8739  -8.8546  -8.8502  -8.8366  -8.7934  -8.7923  -8.7890  -8.7882
    -8.7846  -8.7476  -8.7456  -8.7430  -8.7429  -8.7406  -8.7392  -5.4286
    -5.1163  -4.7680  -4.6659  -0.4476  -0.2257   0.2633   0.8313   2.9480
     3.0746   3.7819   4.1562   4.1851   4.3622   4.4412   4.7709   7.5201
     8.0086   8.2815   8.7746   9.9195   9.9806  10.1305  10.1719  10.8181
    11.3197  11.6172  11.7138  12.1600  12.4357  12.9941  13.2354  14.5602
    14.7093  14.9192  15.1709  15.3534  16.0812  16.2892  16.6954  16.9485
    17.2395  17.4334  17.5115  18.2504  18.4571  18.6735  18.9024  19.6771

          k = 0.4312 0.3187 0.7445 (  5499 PWs)   bands (ev):

    -8.8739  -8.8544  -8.8502  -8.8367  -8.7935  -8.7924  -8.7889  -8.7881
    -8.7848  -8.7475  -8.7455  -8.7431  -8.7429  -8.7406  -8.7392  -5.4318
    -5.0958  -4.7792  -4.6711  -0.4437  -0.2279   0.2371   0.8251   2.9625
     3.1047   3.7449   4.1710   4.2024   4.3581   4.4515   4.8066   7.4822
     8.0092   8.2479   8.7486   9.9276   9.9907  10.1583  10.2003  10.7806
    11.3241  11.5843  11.6882  12.1945  12.4806  12.9537  13.2297  14.5770
    14.7460  14.9880  15.1345  15.3653  16.0712  16.3216  16.6645  16.9372
    17.2072  17.3996  17.5787  18.2511  18.4136  18.7071  18.9018  19.6187

          k = 0.4250 0.3250 0.7440 (  5499 PWs)   bands (ev):

    -8.8740  -8.8543  -8.8503  -8.8369  -8.7935  -8.7925  -8.7889  -8.7880
    -8.7850  -8.7475  -8.7454  -8.7431  -8.7428  -8.7407  -8.7392  -5.4346
    -5.0755  -4.7908  -4.6759  -0.4398  -0.2299   0.2126   0.8196   2.9755
     3.1358   3.7079   4.1854   4.2188   4.3532   4.4609   4.8405   7.4460
     8.0102   8.2161   8.7243   9.9352   9.9997  10.1861  10.2289  10.7435
    11.3277  11.5525  11.6636  12.2305  12.5224  12.9140  13.2244  14.5866
    14.7878  15.0444  15.1024  15.3815  16.0604  16.3509  16.6392  16.9303
    17.1730  17.3688  17.6485  18.2267  18.3815  18.7498  18.9014  19.5661

          k = 0.4187 0.3312 0.7435 (  5497 PWs)   bands (ev):

    -8.8740  -8.8541  -8.8503  -8.8370  -8.7935  -8.7925  -8.7889  -8.7879
    -8.7853  -8.7475  -8.7453  -8.7432  -8.7427  -8.7407  -8.7391  -5.4371
    -5.0555  -4.8030  -4.6802  -0.4358  -0.2316   0.1900   0.8146   2.9872
     3.1679   3.6712   4.1994   4.2337   4.3478   4.4693   4.8722   7.4120
     8.0118   8.1867   8.7024   9.9422  10.0075  10.2143  10.2568  10.7071
    11.3322  11.5224  11.6404  12.2668  12.5606  12.8747  13.2195  14.5946
    14.8286  15.0379  15.1298  15.3992  16.0505  16.3730  16.6230  16.9276
    17.1403  17.3432  17.7148  18.1774  18.3721  18.7938  18.9019  19.5192

          k = 0.4125 0.3375 0.7430 (  5493 PWs)   bands (ev):

    -8.8740  -8.8539  -8.8503  -8.8371  -8.7934  -8.7926  -8.7888  -8.7877
    -8.7855  -8.7475  -8.7452  -8.7432  -8.7426  -8.7408  -8.7391  -5.4392
    -5.0361  -4.8155  -4.6840  -0.4320  -0.2332   0.1695   0.8102   2.9976
     3.2008   3.6347   4.2128   4.2471   4.3421   4.4769   4.9013   7.3810
     8.0138   8.1600   8.6828   9.9486  10.0142  10.2424  10.2833  10.6724
    11.3366  11.4938  11.6182  12.3037  12.5949  12.8371  13.2154  14.6040
    14.8619  15.0083  15.1816  15.4161  16.0420  16.3843  16.6206  16.9273
    17.1109  17.3252  17.7644  18.1269  18.3736  18.8340  18.9043  19.4765

          k = 0.4062 0.3437 0.7425 (  5494 PWs)   bands (ev):

    -8.8740  -8.8538  -8.8504  -8.8372  -8.7934  -8.7927  -8.7888  -8.7876
    -8.7857  -8.7475  -8.7451  -8.7433  -8.7425  -8.7409  -8.7391  -5.4409
    -5.0173  -4.8285  -4.6874  -0.4285  -0.2347   0.1514   0.8061   3.0067
     3.2345   3.5986   4.2256   4.2583   4.3362   4.4835   4.9261   7.3531
     8.0161   8.1358   8.6656   9.9542  10.0200  10.2699  10.3073  10.6376
    11.3417  11.4673  11.5980  12.3407  12.6238  12.8006  13.2115  14.6146
    14.8724  14.9944  15.2286  15.4313  16.0340  16.3834  16.6322  16.9256
    17.0872  17.3160  17.7804  18.1023  18.3767  18.8641  18.9122  19.4389

          k = 0.4000 0.3500 0.7420 (  5493 PWs)   bands (ev):

    -8.8740  -8.8537  -8.8504  -8.8373  -8.7934  -8.7927  -8.7888  -8.7875
    -8.7859  -8.7475  -8.7450  -8.7434  -8.7424  -8.7409  -8.7390  -5.4422
    -4.9993  -4.8415  -4.6902  -0.4254  -0.2360   0.1360   0.8025   3.0146
     3.2688   3.5630   4.2378   4.2676   4.3304   4.4892   4.9473   7.3291
     8.0189   8.1145   8.6512   9.9591  10.0247  10.2963  10.3293  10.6042
    11.3470  11.4437  11.5805  12.3781  12.6463  12.7684  13.2087  14.6288
    14.8555  15.0050  15.2679  15.4443  16.0276  16.3748  16.6558  16.9185
    17.0702  17.3181  17.7509  18.1188  18.3763  18.8778  18.9305  19.4076

          k = 0.3937 0.3562 0.7415 (  5493 PWs)   bands (ev):

    -8.8741  -8.8536  -8.8505  -8.8373  -8.7934  -8.7928  -8.7888  -8.7873
    -8.7862  -8.7475  -8.7449  -8.7434  -8.7423  -8.7410  -8.7390  -5.4431
    -4.9828  -4.8542  -4.6924  -0.4229  -0.2373   0.1234   0.7994   3.0214
     3.3034   3.5282   4.2491   4.2745   4.3250   4.4945   4.9642   7.3094
     8.0219   8.0961   8.6392   9.9630  10.0284  10.3195  10.3499  10.5728
    11.3525  11.4229  11.5658  12.4133  12.6592  12.7435  13.2072  14.6468
    14.8249  15.0257  15.2985  15.4540  16.0229  16.3637  16.6852  16.9040
    17.0606  17.3354  17.6903  18.1612  18.3704  18.8814  18.9517  19.3827

          k = 0.3875 0.3625 0.7410 (  5490 PWs)   bands (ev):

    -8.8741  -8.8535  -8.8505  -8.8374  -8.7934  -8.7928  -8.7888  -8.7872
    -8.7864  -8.7475  -8.7448  -8.7434  -8.7423  -8.7410  -8.7390  -5.4436
    -4.9683  -4.8658  -4.6941  -0.4210  -0.2384   0.1139   0.7966   3.0271
     3.3376   3.4950   4.2593   4.2785   4.3203   4.4986   4.9763   7.2943
     8.0251   8.0813   8.6307   9.9661  10.0311  10.3362  10.3700  10.5446
    11.3581  11.4052  11.5543  12.4454  12.6583  12.7320  13.2063  14.6683
    14.7917  15.0448  15.3207  15.4621  16.0189  16.3548  16.7166  16.8843
    17.0561  17.3695  17.6200  18.2105  18.3567  18.8818  18.9676  19.3674

          k = 0.3812 0.3687 0.7405 (  5488 PWs)   bands (ev):

    -8.8741  -8.8534  -8.8505  -8.8374  -8.7934  -8.7928  -8.7887  -8.7870
    -8.7865  -8.7475  -8.7448  -8.7435  -8.7422  -8.7410  -8.7390  -5.4436
    -4.9577  -4.8747  -4.6954  -0.4200  -0.2396   0.1077   0.7942   3.0316
     3.3691   3.4654   4.2678   4.2792   4.3174   4.5024   4.9837   7.2842
     8.0279   8.0701   8.6246   9.9681  10.0327  10.3448  10.3876  10.5234
    11.3636  11.3908  11.5460  12.4709  12.6484  12.7316  13.2058  14.6932
    14.7617  15.0582  15.3341  15.4666  16.0165  16.3504  16.7443  16.8640
    17.0537  17.4162  17.5484  18.2568  18.3337  18.8816  18.9759  19.3573

          k = 0.3750 0.3750 0.7400 (  5487 PWs)   bands (ev):

    -8.8741  -8.8534  -8.8505  -8.8374  -8.7934  -8.7928  -8.7888  -8.7869
    -8.7866  -8.7475  -8.7448  -8.7435  -8.7422  -8.7410  -8.7390  -5.4433
    -4.9535  -4.8782  -4.6961  -0.4199  -0.2407   0.1048   0.7922   3.0350
     3.3867   3.4507   4.2728   4.2782   4.3168   4.5052   4.9858   7.2791
     8.0286   8.0645   8.6217   9.9690  10.0333  10.3462  10.3950  10.5151
    11.3661  11.3827  11.5423  12.4828  12.6447  12.7347  13.2062  14.7088
    14.7454  15.0645  15.3383  15.4676  16.0149  16.3516  16.7575  16.8542
    17.0528  17.4609  17.4960  18.2853  18.3102  18.8818  18.9764  19.3519

          k = 0.3562 0.3562 0.7030 (  5485 PWs)   bands (ev):

    -8.8743  -8.8530  -8.8513  -8.8372  -8.7934  -8.7931  -8.7882  -8.7871
    -8.7869  -8.7476  -8.7445  -8.7437  -8.7418  -8.7412  -8.7386  -5.4625
    -4.9158  -4.8595  -4.7167  -0.4175  -0.3140   0.0581   0.7815   3.1804
     3.3903   3.4659   4.2617   4.2635   4.3063   4.7588   4.9632   7.0766
     7.9714   7.9759   8.5421  10.0721  10.0938  10.2595  10.3924  10.5013
    11.3425  11.3521  11.5388  12.5607  12.6986  12.8221  13.0159  14.5880
    14.9693  15.2337  15.3679  15.5433  15.6959  16.7944  16.9039  17.0383
    17.2556  17.6368  17.6456  17.9967  18.1049  18.5239  18.9505  19.0357

          k = 0.3375 0.3375 0.6660 (  5492 PWs)   bands (ev):

    -8.8744  -8.8523  -8.8522  -8.8372  -8.7933  -8.7933  -8.7875  -8.7874
    -8.7873  -8.7477  -8.7441  -8.7441  -8.7415  -8.7414  -8.7385  -5.4699
    -4.8761  -4.8711  -4.7326  -0.3800  -0.3735   0.0378   0.7789   3.3189
     3.3301   3.4334   4.2614   4.2616   4.3070   4.9069   4.9151   6.9902
     7.9427   7.9444   8.5090  10.1324  10.1343  10.2077  10.4422  10.4515
    11.3317  11.3330  11.5327  12.6683  12.6842  12.8247  12.9165  14.5508
    15.1877  15.2126  15.3034  15.5872  15.5911  16.9590  16.9631  17.3668
    17.3905  17.4169  17.6237  18.1012  18.1055  18.1772  18.9485  18.9739

          k = 0.3187 0.3187 0.6290 (  5493 PWs)   bands (ev):

    -8.8743  -8.8531  -8.8514  -8.8372  -8.7935  -8.7932  -8.7878  -8.7878
    -8.7866  -8.7477  -8.7445  -8.7437  -8.7419  -8.7411  -8.7386  -5.4657
    -4.9327  -4.8345  -4.7202  -0.4180  -0.3240   0.0606   0.7841   3.2274
     3.2935   3.5298   4.2491   4.2592   4.3059   4.8413   4.8989   7.0614
     7.9414   7.9957   8.5381  10.0876  10.1230  10.2101  10.3581  10.5362
    11.3313  11.3712  11.5510  12.5085  12.8046  12.8083  12.9491  14.5595
    15.0667  15.2534  15.3086  15.5509  15.6295  16.8681  16.9154  17.0425
    17.4438  17.4997  17.7641  18.0533  18.1018  18.2551  18.8734  18.9929

          k = 0.3000 0.3000 0.5920 (  5506 PWs)   bands (ev):

    -8.8742  -8.8539  -8.8507  -8.8370  -8.7935  -8.7928  -8.7884  -8.7881
    -8.7855  -8.7476  -8.7451  -8.7433  -8.7425  -8.7408  -8.7389  -5.4499
    -5.0287  -4.7922  -4.6926  -0.4474  -0.2732   0.1440   0.7984   3.1012
     3.1782   3.6983   4.2086   4.2229   4.3227   4.7483   4.7568   7.2656
     7.9563   8.1278   8.6334  10.0222  10.0569  10.1515  10.2418  10.6771
    11.3273  11.4811  11.6203  12.3107  12.6571  12.9700  13.0546  14.5678
    15.0496  15.1122  15.1199  15.4597  15.8034  16.6259  16.8249  16.8579
    17.4526  17.5353  17.6551  18.0929  18.1741  18.3900  18.9664  19.1274

          k = 0.2812 0.2812 0.5550 (  5503 PWs)   bands (ev):

    -8.8739  -8.8548  -8.8502  -8.8365  -8.7935  -8.7922  -8.7890  -8.7884
    -8.7843  -8.7476  -8.7457  -8.7431  -8.7429  -8.7405  -8.7392  -5.4242
    -5.1414  -4.7496  -4.6598  -0.4630  -0.2369   0.2856   0.8264   2.9647
     3.0473   3.8743   4.1417   4.1511   4.3601   4.5370   4.6413   7.5296
     7.9793   8.3183   8.7938   9.9464   9.9582  10.0491  10.1255  10.8641
    11.3082  11.6479  11.7440  12.1311  12.4044  13.1363  13.1795  14.5454
    14.7333  14.7776  15.2140  15.4032  16.0340  16.2764  16.8440  16.9263
    17.2923  17.5263  17.6516  18.0885  18.1845  18.6975  18.9405  19.6330

          k = 0.2625 0.2625 0.5180 (  5506 PWs)   bands (ev):

    -8.8736  -8.8559  -8.8503  -8.8353  -8.7933  -8.7916  -8.7894  -8.7886
    -8.7830  -8.7479  -8.7464  -8.7435  -8.7427  -8.7403  -8.7393  -5.3987
    -5.2533  -4.7074  -4.6260  -0.4670  -0.2086   0.4519   0.8852   2.8279
     2.9133   4.0190   4.0582   4.0849   4.2894   4.4044   4.5313   7.7649
     8.0200   8.5210   8.9789   9.8611   9.8796   9.9651  10.0342  11.0814
    11.2853  11.8111  11.8808  11.9849  12.1150  13.2595  13.2649  14.2396
    14.3489  14.8218  15.0531  15.6039  16.0103  16.2179  16.9308  16.9357
    17.2096  17.6489  17.7315  18.0821  18.1977  18.8839  18.9400  20.1557

          k = 0.2437 0.2437 0.4810 (  5502 PWs)   bands (ev):

    -8.8734  -8.8570  -8.8510  -8.8334  -8.7931  -8.7914  -8.7891  -8.7885
    -8.7816  -8.7485  -8.7472  -8.7436  -8.7430  -8.7401  -8.7391  -5.4432
    -5.2890  -4.6658  -4.5923  -0.4630  -0.1832   0.5824   1.0173   2.6992
     2.7851   3.9365   3.9565   4.0313   4.2546   4.3698   4.5070   7.8723
     8.1145   8.6577   9.0884   9.8199   9.9008   9.9601   9.9924  11.1771
    11.4026  11.6958  11.8773  11.9737  12.0708  13.1890  13.2461  14.0410
    14.1668  14.7493  15.0109  15.6705  16.0847  16.1854  16.9091  17.0497
    17.4338  17.8311  17.8316  18.1014  18.2377  18.8471  18.9336  20.3299

          k = 0.2250 0.2250 0.4440 (  5493 PWs)   bands (ev):

    -8.8731  -8.8584  -8.8524  -8.8309  -8.7930  -8.7918  -8.7879  -8.7878
    -8.7802  -8.7495  -8.7480  -8.7438  -8.7433  -8.7397  -8.7387  -5.5627
    -5.2396  -4.6252  -4.5592  -0.4556  -0.1611   0.6389   1.2477   2.5874
     2.6712   3.7667   3.8541   3.8664   4.2487   4.4326   4.5794   7.8872
     8.1840   8.6607   9.0349   9.8012   9.9553  10.0832  10.1699  11.1227
    11.4736  11.6564  11.7503  11.9456  12.1178  13.0018  13.1540  14.0848
    14.2484  14.4643  15.1942  15.5900  15.9582  16.4371  17.1074  17.1428
    17.5931  18.0306  18.0690  18.1590  18.3170  18.5866  18.9450  20.1942

          k = 0.2062 0.2062 0.4070 (  5488 PWs)   bands (ev):

    -8.8731  -8.8600  -8.8543  -8.8278  -8.7931  -8.7924  -8.7866  -8.7863
    -8.7788  -8.7507  -8.7489  -8.7449  -8.7427  -8.7391  -8.7381  -5.6914
    -5.1686  -4.5858  -4.5272  -0.4503  -0.1469   0.6430   1.5431   2.5013
     2.5807   3.5634   3.7571   3.7646   4.1208   4.6102   4.6701   7.8718
     8.1654   8.5547   8.8826   9.7541   9.9099  10.3774  10.4712  11.0327
    11.3988  11.5955  11.6346  11.9212  12.0839  13.0167  13.1945  14.0728
    14.3796  14.4515  15.3780  15.5273  15.7118  16.8304  17.2201  17.3608
    17.6502  18.1863  18.1920  18.2674  18.4068  18.5192  19.0032  20.0267

          k = 0.1875 0.1875 0.3700 (  5490 PWs)   bands (ev):

    -8.8731  -8.8618  -8.8566  -8.8244  -8.7934  -8.7929  -8.7850  -8.7844
    -8.7773  -8.7522  -8.7498  -8.7462  -8.7420  -8.7386  -8.7375  -5.8174
    -5.0862  -4.5476  -4.4962  -0.4525  -0.1469   0.6135   1.8753   2.4486
     2.5232   3.3922   3.6690   3.6760   3.9948   4.7737   4.7840   7.8390
     8.0825   8.3968   8.6987   9.6808   9.7514  10.5828  10.6849  10.9090
    11.4034  11.4264  11.6108  11.7144  12.4239  13.1972  13.3601  13.9170
    14.5686  14.6933  15.4607  15.5101  15.5574  17.1208  17.3827  17.5998
    17.6801  17.7742  18.2576  18.3599  18.8144  18.8464  19.1308  19.8560

          k = 0.1687 0.1687 0.3330 (  5477 PWs)   bands (ev):

    -8.8733  -8.8636  -8.8592  -8.8205  -8.7937  -8.7935  -8.7829  -8.7823
    -8.7758  -8.7536  -8.7506  -8.7474  -8.7412  -8.7382  -8.7368  -5.9370
    -4.9952  -4.5107  -4.4667  -0.4664  -0.1669   0.5572   2.2257   2.4357
     2.5130   3.2658   3.5914   3.5983   3.8741   4.8870   4.9502   7.7872
     7.9729   8.2222   8.5105   9.4588   9.6364  10.3560  10.5348  10.7699
    11.2425  11.6278  11.8687  11.9364  12.7979  13.4138  13.5859  13.8665
    14.8059  14.9408  15.3817  15.3943  15.7015  17.1746  17.4155  17.6791
    17.7241  17.8477  18.3076  18.4204  19.1621  19.2401  19.4012  19.6840

          k = 0.1500 0.1500 0.2960 (  5479 PWs)   bands (ev):

    -8.8736  -8.8656  -8.8620  -8.8166  -8.7941  -8.7940  -8.7807  -8.7801
    -8.7745  -8.7551  -8.7514  -8.7487  -8.7404  -8.7378  -8.7360  -6.0480
    -4.8979  -4.4755  -4.4387  -0.4940  -0.2109   0.4789   2.4647   2.4796
     2.6603   3.1859   3.5240   3.5309   3.7618   5.0073   5.1057   7.7096
     7.8599   8.0471   8.3294   9.1508   9.5677   9.9095  10.1482  10.6144
    10.9962  12.0866  12.2864  12.3726  13.1896  13.6085  13.8388  13.9679
    15.0459  15.1108  15.2825  15.3864  15.8261  17.0110  17.3316  17.7003
    18.0119  18.0393  18.3390  18.4592  19.3525  19.4657  19.7756  19.7758

          k = 0.1312 0.1312 0.2590 (  5463 PWs)   bands (ev):

    -8.8739  -8.8676  -8.8647  -8.8127  -8.7945  -8.7945  -8.7784  -8.7779
    -8.7733  -8.7566  -8.7520  -8.7499  -8.7396  -8.7375  -8.7352  -6.1488
    -4.7968  -4.4420  -4.4122  -0.5346  -0.2786   0.3857   2.5346   2.5665
     3.0200   3.1607   3.4673   3.4740   3.6597   5.1321   5.2481   7.6095
     7.7499   7.8825   8.1602   8.8365   9.4329   9.4989   9.7325  10.4403
    10.7156  12.6099  12.7873  12.8628  13.5935  13.7953  14.1070  14.1849
    15.0429  15.1448  15.3360  15.5793  15.9324  16.8475  17.3767  17.7292
    18.1948  18.2096  18.3609  18.4761  19.0840  19.7009  19.7122  20.0995

          k = 0.1125 0.1125 0.2220 (  5471 PWs)   bands (ev):

    -8.8744  -8.8695  -8.8674  -8.8089  -8.7950  -8.7949  -8.7762  -8.7758
    -8.7722  -8.7579  -8.7527  -8.7510  -8.7388  -8.7372  -8.7343  -6.2382
    -4.6950  -4.4110  -4.3880  -0.5846  -0.3664   0.2862   2.6398   2.6704
     3.1301   3.4202   3.4234   3.4531   3.5684   5.2556   5.3743   7.4978
     7.6313   7.7314   7.9977   8.5292   8.9681   9.2699   9.5110  10.2556
    10.4279  13.1567  13.3173  13.3767  13.9960  14.0095  14.3798  14.4400
    14.7861  15.1703  15.5666  15.8075  16.0179  16.7931  17.4462  17.7559
    18.2767  18.3311  18.3962  18.4696  18.7885  19.4538  19.5740  19.9809

          k = 0.0937 0.0937 0.1850 (  5468 PWs)   bands (ev):

    -8.8748  -8.8713  -8.8698  -8.8054  -8.7953  -8.7953  -8.7741  -8.7738
    -8.7712  -8.7592  -8.7533  -8.7520  -8.7381  -8.7369  -8.7335  -6.3153
    -4.5960  -4.3827  -4.3661  -0.6392  -0.4666   0.1893   2.7715   2.7983
     3.1544   3.3823   3.3879   3.4898   3.8624   5.3767   5.4830   7.3763
     7.5045   7.5992   7.8373   8.2367   8.5333   8.9166   9.4782  10.0729
    10.1603  13.7091  13.8477  13.8978  14.2483  14.3917  14.4869  14.6524
    14.7324  15.2259  15.7897  16.0206  16.0894  16.8280  17.5327  17.7614
    18.2566  18.4056  18.4477  18.4507  18.5946  19.0291  19.4814  19.8473

          k = 0.0750 0.0750 0.1480 (  5479 PWs)   bands (ev):

    -8.8752  -8.8729  -8.8720  -8.8024  -8.7957  -8.7956  -8.7723  -8.7721
    -8.7703  -8.7603  -8.7537  -8.7529  -8.7375  -8.7367  -8.7329  -6.3793
    -4.5046  -4.3582  -4.3472  -0.6928  -0.5696   0.1023   2.9171   2.9390
     3.1909   3.3527   3.3580   3.4244   4.2804   5.4895   5.5721   7.2169
     7.3934   7.4867   7.6770   7.9639   8.1411   8.6144   9.4753   9.9020
     9.9316  14.1025  14.2467  14.3933  14.4186  14.5947  14.7603  14.9180
    14.9877  15.3142  15.9912  16.1520  16.1881  16.9120  17.6183  17.6893
    18.1771  18.3752  18.4751  18.4798  18.6097  18.6607  19.3963  19.6508

          k = 0.0562 0.0562 0.1110 (  5478 PWs)   bands (ev):

    -8.8755  -8.8742  -8.8737  -8.7997  -8.7959  -8.7959  -8.7708  -8.7707
    -8.7697  -8.7611  -8.7541  -8.7536  -8.7370  -8.7366  -8.7323  -6.4295
    -4.4252  -4.3380  -4.3314  -0.7403  -0.6648   0.0305   3.0615   3.0776
     3.2323   3.3306   3.3355   3.3730   4.7018   5.5878   5.6416   6.9948
     7.3194   7.3989   7.5297   7.7215   7.8072   8.3824   9.4903   9.7538
     9.7558  13.8622  14.7448  14.8293  14.8851  14.9211  15.0770  15.1758
    15.2288  15.4237  16.1711  16.2187  16.2988  17.0216  17.5257  17.6350
    18.1588  18.2528  18.4739  18.5470  18.5536  18.6993  19.3191  19.4329

          k = 0.0375 0.0375 0.0740 (  5474 PWs)   bands (ev):

    -8.8757  -8.8751  -8.8749  -8.7978  -8.7961  -8.7960  -8.7697  -8.7696
    -8.7692  -8.7618  -8.7544  -8.7542  -8.7367  -8.7364  -8.7319  -6.4658
    -4.3632  -4.3228  -4.3197  -0.7774  -0.7417  -0.0230   3.1863   3.1964
     3.2695   3.3153   3.3201   3.3360   5.1146   5.6647   5.6914   6.7158
     7.2792   7.3356   7.4068   7.5245   7.5486   8.2207   9.5128   9.6338
     9.6385  13.6572  15.1580  15.1652  15.2599  15.2787  15.3161  15.4149
    15.4333  15.5348  16.2624  16.3487  16.3796  17.1166  17.3453  17.4786
    18.2127  18.2319  18.4192  18.6433  18.6805  18.8186  19.2092  19.2362

          k = 0.0187 0.0187 0.0370 (  5467 PWs)   bands (ev):

    -8.8759  -8.8757  -8.8757  -8.7966  -8.7962  -8.7962  -8.7690  -8.7690
    -8.7688  -8.7621  -8.7546  -8.7545  -8.7365  -8.7364  -8.7316  -6.4876
    -4.3237  -4.3133  -4.3126  -0.8009  -0.7916  -0.0557   3.2722   3.2773
     3.2956   3.3059   3.3111   3.3142   5.5000   5.7137   5.7208   6.4071
     7.2716   7.2989   7.3212   7.3819   7.3871   8.1281   9.5323   9.5629
     9.5651  13.5249  15.4092  15.4431  15.4903  15.4907  15.5097  15.5864
    15.5869  15.6156  16.3195  16.3534  16.5821  17.1618  17.2116  17.2628
    18.3117  18.3186  18.3911  18.7814  18.8132  18.9738  18.9780  19.1454

          k = 0.0000 0.0000 0.0000 (  5449 PWs)   bands (ev):

    -8.8759  -8.8759  -8.8759  -8.7961  -8.7961  -8.7961  -8.7687  -8.7687
    -8.7687  -8.7623  -8.7546  -8.7546  -8.7363  -8.7363  -8.7315  -6.4949
    -4.3101  -4.3101  -4.3101  -0.8090  -0.8090  -0.0668   3.3021   3.3021
     3.3021   3.3085   3.3085   3.3085   5.7328   5.7328   5.7328   6.2012
     7.2897   7.2897   7.2897   7.3218   7.3218   8.0974   9.5403   9.5403
     9.5403  13.4792  15.5436  15.5436  15.5646  15.5646  15.5646  15.6489
    15.6489  15.6489  16.3488  16.3488  16.6924  17.1635  17.1635  17.1635
    18.3812  18.3812  18.3812  18.8627  18.8627  18.8627  19.1145  19.1145

     Writing all to output data dir ./outputs/gaalas25.save/

     init_run     :      1.72s CPU      1.84s WALL (       1 calls)
     electrons    :    520.97s CPU    505.28s WALL (       1 calls)

     Called by init_run:
     wfcinit      :      0.00s CPU      0.00s WALL (       1 calls)
     potinit      :      0.66s CPU      0.67s WALL (       1 calls)
     hinit0       :      0.87s CPU      0.87s WALL (       1 calls)

     Called by electrons:
     c_bands      :    520.96s CPU    505.18s WALL (       1 calls)
     v_of_rho     :      0.03s CPU      0.04s WALL (       1 calls)
     newd         :      0.14s CPU      0.24s WALL (       1 calls)
     PAW_pot      :      0.62s CPU      0.62s WALL (       1 calls)

     Called by c_bands:
     init_us_2    :      0.13s CPU      0.14s WALL (      81 calls)
     init_us_2:cp :      0.13s CPU      0.14s WALL (      81 calls)
     cegterg      :    506.02s CPU    489.67s WALL (     175 calls)

     Called by *egterg:
     cdiaghg      :     49.66s CPU     95.12s WALL (    3117 calls)
     h_psi        :    242.80s CPU    140.45s WALL (    3292 calls)
     s_psi        :     25.62s CPU     79.27s WALL (    3292 calls)
     g_psi        :      4.21s CPU      4.34s WALL (    3036 calls)

     Called by h_psi:
     h_psi:calbec :     26.66s CPU     -8.93s WALL (    3292 calls)
     vloc_psi     :    188.22s CPU    120.06s WALL (    3292 calls)
     add_vuspsi   :     26.09s CPU     27.37s WALL (    3292 calls)

     General routines
     calbec       :     26.63s CPU     -8.94s WALL (    3292 calls)
     fft          :      0.46s CPU      0.47s WALL (      12 calls)
     fftw         :    163.84s CPU    112.45s WALL (  241756 calls)
     davcio       :      0.15s CPU      1.07s WALL (     162 calls)

     Parallel routines

     PWSCF        :   8m43.00s CPU   8m30.07s WALL


   This run was terminated on:   6:32: 7  16Dec2024            

=------------------------------------------------------------------------------=
   JOB DONE.
=------------------------------------------------------------------------------=
