
     Program PWSCF v.7.0 starts on 16Dec2024 at  6:34:44 

     This program is part of the open-source Quantum ESPRESSO suite
     for quantum simulation of materials; please cite
         "P. Giannozzi et al., J. Phys.:Condens. Matter 21 395502 (2009);
         "P. Giannozzi et al., J. Phys.:Condens. Matter 29 465901 (2017);
         "P. Giannozzi et al., J. Chem. Phys. 152 154105 (2020);
          URL http://www.quantum-espresso.org", 
     in publications or presentations arising from this work. More details at
     http://www.quantum-espresso.org/quote

     Parallel version (MPI & OpenMP), running on       2 processor cores
     Number of MPI processes:                 2
     Threads/MPI process:                     1

     MPI processes distributed on     1 nodes
     R & G space division:  proc/nbgrp/npool/nimage =       2
     179 MiB available memory on the printing compute node when the environment starts

     Reading input from pw.bands.50.in

     Current dimensions of program PWSCF are:
     Max number of different atomic species (ntypx) = 10
     Max number of k-points (npk) =  40000
     Max angular momentum in pseudopotentials (lmaxx) =  4

     Atomic positions and unit cell read from directory:
     ./outputs/gaalas50.save/

     file Ga.pbe-dn-kjpaw_psl.1.0.0.UPF: wavefunction(s)  4S renormalized
     file Al.pbe-n-kjpaw_psl.1.0.0.UPF: wavefunction(s)  3S 3P renormalized

     IMPORTANT: XC functional enforced from input :
     Exchange-correlation= PBE
                           (   1   4   3   4   0   0   0)
     Any further DFT definition will be discarded
     Please, verify this is what you really want

     Found identity + (  0.0000  0.5000  0.5000) symmetry
     This is a supercell, fractional translations are disabled
     Message from routine setup:
     using ibrav=0 with symmetry is DISCOURAGED, use correct ibrav instead

     Subspace diagonalization in iterative solution of the eigenvalue problem:
     a serial algorithm will be used


     Parallelization info
     --------------------
     sticks:   dense  smooth     PW     G-vecs:    dense   smooth      PW
     Min         744     744    218                21909    21909    3488
     Max         745     745    219                21910    21910    3491
     Sum        1489    1489    437                43819    43819    6979

     Using Slab Decomposition



     bravais-lattice index     =            0
     lattice parameter (alat)  =      10.8663  a.u.
     unit-cell volume          =    1283.0421 (a.u.)^3
     number of atoms/cell      =            8
     number of atomic types    =            3
     number of electrons       =        52.00
     number of Kohn-Sham states=           64
     kinetic-energy cutoff     =      40.0000  Ry
     charge density cutoff     =     160.0000  Ry
     Exchange-correlation= PBE
                           (   1   4   3   4   0   0   0)

     celldm(1)=  10.866265  celldm(2)=   0.000000  celldm(3)=   0.000000
     celldm(4)=   0.000000  celldm(5)=   0.000000  celldm(6)=   0.000000

     crystal axes: (cart. coord. in units of alat)
               a(1) = (   1.000000   0.000000   0.000000 )  
               a(2) = (   0.000000   1.000000   0.000000 )  
               a(3) = (   0.000000   0.000000   1.000000 )  

     reciprocal axes: (cart. coord. in units 2 pi/alat)
               b(1) = (  1.000000  0.000000  0.000000 )  
               b(2) = (  0.000000  1.000000  0.000000 )  
               b(3) = (  0.000000  0.000000  1.000000 )  


     PseudoPot. # 1 for As read from file:
     ../Pseudopotentials/As.pbe-n-kjpaw_psl.1.0.0.UPF
     MD5 check sum: 21b474db91924651be503153fb2dbf55
     Pseudo is Projector augmented-wave + core cor, Zval =  5.0
     Generated using &quot;atomic&quot; code by A. Dal Corso  v.6.3
     Shape of augmentation charge: PSQ
     Using radial grid of 1209 points,  4 beta functions with: 
                l(1) =   0
                l(2) =   0
                l(3) =   1
                l(4) =   1
     Q(r) pseudized with 0 coefficients 


     PseudoPot. # 2 for Ga read from file:
     ../Pseudopotentials/Ga.pbe-dn-kjpaw_psl.1.0.0.UPF
     MD5 check sum: 50ce49cbf7e0a40ad8623bf41840a268
     Pseudo is Projector augmented-wave + core cor, Zval = 13.0
     Generated using &quot;atomic&quot; code by A. Dal Corso  v.6.3
     Shape of augmentation charge: PSQ
     Using radial grid of 1205 points,  6 beta functions with: 
                l(1) =   0
                l(2) =   0
                l(3) =   1
                l(4) =   1
                l(5) =   2
                l(6) =   2
     Q(r) pseudized with 0 coefficients 


     PseudoPot. # 3 for Al read from file:
     ../Pseudopotentials/Al.pbe-n-kjpaw_psl.1.0.0.UPF
     MD5 check sum: 502b6b27b9c6270cab5dd1084b96fa6d
     Pseudo is Projector augmented-wave + core cor, Zval =  3.0
     Generated using &quot;atomic&quot; code by A. Dal Corso  v.6.3
     Shape of augmentation charge: PSQ
     Using radial grid of 1135 points,  6 beta functions with: 
                l(1) =   0
                l(2) =   0
                l(3) =   1
                l(4) =   1
                l(5) =   2
                l(6) =   2
     Q(r) pseudized with 0 coefficients 


     atomic species   valence    mass     pseudopotential
        As             5.00    74.92100     As( 1.00)
        Ga            13.00    69.72300     Ga( 1.00)
        Al             3.00    26.98100     Al( 1.00)

      8 Sym. Ops. (no inversion) found



   Cartesian axes

     site n.     atom                  positions (alat units)
         1           As  tau(   1) = (   0.2500000   0.2500000   0.2500000  )
         2           As  tau(   2) = (   0.2500000   0.7500000   0.7500000  )
         3           As  tau(   3) = (   0.7500000   0.2500000   0.7500000  )
         4           As  tau(   4) = (   0.7500000   0.7500000   0.2500000  )
         5           Ga  tau(   5) = (   0.0000000   0.0000000   0.0000000  )
         6           Ga  tau(   6) = (   0.0000000   0.5000000   0.5000000  )
         7           Al  tau(   7) = (   0.5000000   0.0000000   0.5000000  )
         8           Al  tau(   8) = (   0.5000000   0.5000000   0.0000000  )

     number of k points=    81  Marzari-Vanderbilt smearing, width (Ry)=  0.0050
                       cart. coord. in units 2pi/alat
        k(    1) = (   0.0000000   0.0000000   0.0000000), wk =   0.0246914
        k(    2) = (   0.0250000   0.0000000   0.0250000), wk =   0.0246914
        k(    3) = (   0.0500000   0.0000000   0.0500000), wk =   0.0246914
        k(    4) = (   0.0750000   0.0000000   0.0750000), wk =   0.0246914
        k(    5) = (   0.1000000   0.0000000   0.1000000), wk =   0.0246914
        k(    6) = (   0.1250000   0.0000000   0.1250000), wk =   0.0246914
        k(    7) = (   0.1500000   0.0000000   0.1500000), wk =   0.0246914
        k(    8) = (   0.1750000   0.0000000   0.1750000), wk =   0.0246914
        k(    9) = (   0.2000000   0.0000000   0.2000000), wk =   0.0246914
        k(   10) = (   0.2250000   0.0000000   0.2250000), wk =   0.0246914
        k(   11) = (   0.2500000   0.0000000   0.2500000), wk =   0.0246914
        k(   12) = (   0.2750000   0.0000000   0.2750000), wk =   0.0246914
        k(   13) = (   0.3000000   0.0000000   0.3000000), wk =   0.0246914
        k(   14) = (   0.3250000   0.0000000   0.3250000), wk =   0.0246914
        k(   15) = (   0.3500000   0.0000000   0.3500000), wk =   0.0246914
        k(   16) = (   0.3750000   0.0000000   0.3750000), wk =   0.0246914
        k(   17) = (   0.4000000   0.0000000   0.4000000), wk =   0.0246914
        k(   18) = (   0.4250000   0.0000000   0.4250000), wk =   0.0246914
        k(   19) = (   0.4500000   0.0000000   0.4500000), wk =   0.0246914
        k(   20) = (   0.4750000   0.0000000   0.4750000), wk =   0.0246914
        k(   21) = (   0.5000000   0.0000000   0.5000000), wk =   0.0246914
        k(   22) = (   0.5000000   0.0125000   0.5125000), wk =   0.0246914
        k(   23) = (   0.5000000   0.0250000   0.5250000), wk =   0.0246914
        k(   24) = (   0.5000000   0.0375000   0.5375000), wk =   0.0246914
        k(   25) = (   0.5000000   0.0500000   0.5500000), wk =   0.0246914
        k(   26) = (   0.5000000   0.0625000   0.5625000), wk =   0.0246914
        k(   27) = (   0.5000000   0.0750000   0.5750000), wk =   0.0246914
        k(   28) = (   0.5000000   0.0875000   0.5875000), wk =   0.0246914
        k(   29) = (   0.5000000   0.1000000   0.6000000), wk =   0.0246914
        k(   30) = (   0.5000000   0.1125000   0.6125000), wk =   0.0246914
        k(   31) = (   0.5000000   0.1250000   0.6250000), wk =   0.0246914
        k(   32) = (   0.5000000   0.1375000   0.6375000), wk =   0.0246914
        k(   33) = (   0.5000000   0.1500000   0.6500000), wk =   0.0246914
        k(   34) = (   0.5000000   0.1625000   0.6625000), wk =   0.0246914
        k(   35) = (   0.5000000   0.1750000   0.6750000), wk =   0.0246914
        k(   36) = (   0.5000000   0.1875000   0.6875000), wk =   0.0246914
        k(   37) = (   0.5000000   0.2000000   0.7000000), wk =   0.0246914
        k(   38) = (   0.5000000   0.2125000   0.7125000), wk =   0.0246914
        k(   39) = (   0.5000000   0.2250000   0.7250000), wk =   0.0246914
        k(   40) = (   0.5000000   0.2375000   0.7375000), wk =   0.0246914
        k(   41) = (   0.5000000   0.2500000   0.7500000), wk =   0.0246914
        k(   42) = (   0.4937500   0.2562500   0.7495000), wk =   0.0246914
        k(   43) = (   0.4875000   0.2625000   0.7490000), wk =   0.0246914
        k(   44) = (   0.4812500   0.2687500   0.7485000), wk =   0.0246914
        k(   45) = (   0.4750000   0.2750000   0.7480000), wk =   0.0246914
        k(   46) = (   0.4687500   0.2812500   0.7475000), wk =   0.0246914
        k(   47) = (   0.4625000   0.2875000   0.7470000), wk =   0.0246914
        k(   48) = (   0.4562500   0.2937500   0.7465000), wk =   0.0246914
        k(   49) = (   0.4500000   0.3000000   0.7460000), wk =   0.0246914
        k(   50) = (   0.4437500   0.3062500   0.7455000), wk =   0.0246914
        k(   51) = (   0.4375000   0.3125000   0.7450000), wk =   0.0246914
        k(   52) = (   0.4312500   0.3187500   0.7445000), wk =   0.0246914
        k(   53) = (   0.4250000   0.3250000   0.7440000), wk =   0.0246914
        k(   54) = (   0.4187500   0.3312500   0.7435000), wk =   0.0246914
        k(   55) = (   0.4125000   0.3375000   0.7430000), wk =   0.0246914
        k(   56) = (   0.4062500   0.3437500   0.7425000), wk =   0.0246914
        k(   57) = (   0.4000000   0.3500000   0.7420000), wk =   0.0246914
        k(   58) = (   0.3937500   0.3562500   0.7415000), wk =   0.0246914
        k(   59) = (   0.3875000   0.3625000   0.7410000), wk =   0.0246914
        k(   60) = (   0.3812500   0.3687500   0.7405000), wk =   0.0246914
        k(   61) = (   0.3750000   0.3750000   0.7400000), wk =   0.0246914
        k(   62) = (   0.3562500   0.3562500   0.7030000), wk =   0.0246914
        k(   63) = (   0.3375000   0.3375000   0.6660000), wk =   0.0246914
        k(   64) = (   0.3187500   0.3187500   0.6290000), wk =   0.0246914
        k(   65) = (   0.3000000   0.3000000   0.5920000), wk =   0.0246914
        k(   66) = (   0.2812500   0.2812500   0.5550000), wk =   0.0246914
        k(   67) = (   0.2625000   0.2625000   0.5180000), wk =   0.0246914
        k(   68) = (   0.2437500   0.2437500   0.4810000), wk =   0.0246914
        k(   69) = (   0.2250000   0.2250000   0.4440000), wk =   0.0246914
        k(   70) = (   0.2062500   0.2062500   0.4070000), wk =   0.0246914
        k(   71) = (   0.1875000   0.1875000   0.3700000), wk =   0.0246914
        k(   72) = (   0.1687500   0.1687500   0.3330000), wk =   0.0246914
        k(   73) = (   0.1500000   0.1500000   0.2960000), wk =   0.0246914
        k(   74) = (   0.1312500   0.1312500   0.2590000), wk =   0.0246914
        k(   75) = (   0.1125000   0.1125000   0.2220000), wk =   0.0246914
        k(   76) = (   0.0937500   0.0937500   0.1850000), wk =   0.0246914
        k(   77) = (   0.0750000   0.0750000   0.1480000), wk =   0.0246914
        k(   78) = (   0.0562500   0.0562500   0.1110000), wk =   0.0246914
        k(   79) = (   0.0375000   0.0375000   0.0740000), wk =   0.0246914
        k(   80) = (   0.0187500   0.0187500   0.0370000), wk =   0.0246914
        k(   81) = (   0.0000000   0.0000000   0.0000000), wk =   0.0246914

     Dense  grid:    43819 G-vectors     FFT dimensions: (  45,  45,  45)

     Estimated max dynamical RAM per process >      81.20 MB

     Estimated total dynamical RAM >     162.40 MB

     Check: negative core charge=   -0.000002

     The potential is recalculated from file :
     ./outputs/gaalas50.save/charge-density

     Starting wfcs are   42 randomized atomic wfcs +   22 random wfcs
     Checking if some PAW data can be deallocated... 

     Band Structure Calculation
     Davidson diagonalization with overlap
     c_bands:  1 eigenvalues not converged
     c_bands:  1 eigenvalues not converged

     ethr =  1.92E-11,  avg # of iterations = 44.6

     total cpu time spent up to now is      511.7 secs

     End of band structure calculation

          k = 0.0000 0.0000 0.0000 (  5449 PWs)   bands (ev):

    -9.1987  -9.1794  -9.1794  -9.1320  -9.1320  -9.1105  -9.0961  -9.0954
    -9.0815  -9.0779  -6.7238  -4.6579  -4.6559  -4.6559  -1.1482  -0.6641
    -0.1390   2.9868   2.9933   2.9933   2.9938   2.9938   3.0045   5.2681
     5.3088   5.3088   6.1016   6.8136   6.8277   6.8277   6.8850   7.4042
     7.7392   9.2401   9.2401   9.2417  13.3413  14.6781  14.8577  15.0948
    15.2424  15.2424  15.2517  15.2517  15.3317  15.9405  16.2669  16.4106
    16.6702  16.6702  16.6995  17.5131  17.8030  17.8030  18.2851  18.2921
    18.2921  18.5974  18.5974  18.7559  18.7806  18.7818  18.7818  18.9293

          k = 0.0250 0.0000 0.0250 (  5461 PWs)   bands (ev):

    -9.1987  -9.1794  -9.1793  -9.1321  -9.1320  -9.1106  -9.0961  -9.0954
    -9.0815  -9.0779  -6.7197  -4.6633  -4.6615  -4.6555  -1.1419  -0.6550
    -0.1333   2.9662   2.9888   2.9892   2.9908   2.9916   3.0037   5.1816
     5.2894   5.2945   6.1874   6.8064   6.8490   6.8731   6.9015   7.4223
     7.7582   9.2392   9.2451   9.2598  13.3673  14.6477  14.8087  15.0636
    15.1859  15.1981  15.1987  15.2253  15.2801  15.9480  16.2030  16.3323
    16.6797  16.6928  16.7598  17.4960  17.7898  17.8113  18.1359  18.3153
    18.4530  18.5350  18.5935  18.6923  18.8062  18.8425  18.9739  19.0405

          k = 0.0500 0.0000 0.0500 (  5473 PWs)   bands (ev):

    -9.1986  -9.1794  -9.1792  -9.1324  -9.1321  -9.1108  -9.0960  -9.0954
    -9.0815  -9.0780  -6.7071  -4.6791  -4.6777  -4.6543  -1.1235  -0.6279
    -0.1165   2.8933   2.9767   2.9780   2.9843   2.9851   3.0130   4.9508
     5.2526   5.2826   6.3673   6.8176   6.9005   6.9534   6.9827   7.4780
     7.8161   9.2357   9.2579   9.3192  13.4434  14.5525  14.7072  14.9730
    14.9882  15.0278  15.0749  15.1548  15.1742  15.9485  16.0843  16.1464
    16.6988  16.7235  16.9308  17.3939  17.7653  17.8693  18.0156  18.3646
    18.4583  18.5447  18.5811  18.7568  18.9243  19.0351  19.2003  19.3315

          k = 0.0750 0.0000 0.0750 (  5477 PWs)   bands (ev):

    -9.1984  -9.1795  -9.1790  -9.1329  -9.1322  -9.1112  -9.0958  -9.0952
    -9.0816  -9.0781  -6.6862  -4.7044  -4.7041  -4.6525  -1.0941  -0.5841
    -0.0889   2.7815   2.9554   2.9576   2.9764   2.9773   3.0318   4.6689
     5.1861   5.2746   6.5600   6.8483   6.9745   7.0418   7.1469   7.5682
     7.9182   9.2326   9.2793   9.4183  13.5640  14.3920  14.5826  14.6672
    14.7564  14.8345  14.8960  15.0377  15.0531  15.8490  15.9811  15.9817
    16.6967  16.7745  17.1621  17.2058  17.7514  17.9351  17.9630  18.3562
    18.3957  18.5706  18.6896  18.9152  19.1337  19.2724  19.4622  19.7051

          k = 0.1000 0.0000 0.1000 (  5489 PWs)   bands (ev):

    -9.1982  -9.1795  -9.1786  -9.1336  -9.1323  -9.1118  -9.0956  -9.0950
    -9.0817  -9.0783  -6.6571  -4.7391  -4.7382  -4.6508  -1.0557  -0.5261
    -0.0512   2.6444   2.9257   2.9285   2.9701   2.9713   3.0587   4.3684
     5.0946   5.2625   6.7386   6.8952   7.0697   7.1639   7.3472   7.6866
     8.0712   9.2333   9.3090   9.5556  13.7155  14.1921  14.2702  14.3145
    14.5456  14.6445  14.6914  14.8770  14.9292  15.5898  15.8944  15.9167
    16.6799  16.8470  16.9732  17.3790  17.7137  17.9208  18.0865  18.2702
    18.4105  18.6764  18.8271  19.0992  19.3586  19.5307  19.7700  20.0924

          k = 0.1250 0.0000 0.1250 (  5489 PWs)   bands (ev):

    -9.1979  -9.1796  -9.1782  -9.1344  -9.1324  -9.1125  -9.0953  -9.0947
    -9.0819  -9.0786  -6.6199  -4.7812  -4.7787  -4.6497  -1.0104  -0.4565
    -0.0045   2.4944   2.8882   2.8918   2.9689   2.9705   3.0934   4.0617
     4.9803   5.2474   6.9030   6.9544   7.1870   7.3118   7.5647   7.8280
     8.2827   9.2412   9.3476   9.7270  13.7723  13.8282  13.9729  14.0406
    14.4169  14.4290  14.4735  14.7017  14.7913  15.2992  15.8067  15.8363
    16.6641  16.7216  16.9359  17.4710  17.6254  18.0444  18.1721  18.3113
    18.4600  18.8190  18.9915  19.2863  19.5665  19.8032  20.1020  20.4441

          k = 0.1500 0.0000 0.1500 (  5473 PWs)   bands (ev):

    -9.1974  -9.1798  -9.1776  -9.1354  -9.1324  -9.1132  -9.0950  -9.0944
    -9.0820  -9.0788  -6.5748  -4.8287  -4.8245  -4.6499  -0.9603  -0.3788
     0.0496   2.3425   2.8444   2.8490   2.9761   2.9787   3.1355   3.7559
     4.8469   5.2278   7.0227   7.0612   7.3269   7.4741   7.7858   7.9863
     8.5551   9.2596   9.3947   9.9248  13.3640  13.3843  13.7979  14.1229
    14.1755  14.2386  14.3642  14.5126  14.6450  15.0042  15.7076  15.7287
    16.4632  16.6579  17.0330  17.4537  17.4938  18.1928  18.2277  18.4932
    18.6062  18.9772  19.1785  19.4610  19.7478  20.0846  20.4268  20.7142

          k = 0.1750 0.0000 0.1750 (  5469 PWs)   bands (ev):

    -9.1969  -9.1799  -9.1769  -9.1365  -9.1325  -9.1141  -9.0946  -9.0940
    -9.0822  -9.0791  -6.5221  -4.8801  -4.8738  -4.6525  -0.9076  -0.2968
     0.1086   2.1971   2.7953   2.8014   2.9939   2.9992   3.1847   3.4555
     4.6956   5.2025   7.0968   7.2190   7.4883   7.6426   8.0058   8.1588
     8.8806   9.2905   9.4503  10.1371  12.8916  12.9268  13.6127  13.9307
    13.9902  14.1241  14.3054  14.4700  14.5111  14.7132  15.5923  15.5943
    16.2050  16.6612  17.1030  17.3336  17.4443  18.2271  18.3378  18.6997
    18.8738  19.1343  19.3848  19.6044  19.8879  20.3520  20.6618  20.8603

          k = 0.2000 0.0000 0.2000 (  5465 PWs)   bands (ev):

    -9.1963  -9.1801  -9.1761  -9.1377  -9.1326  -9.1152  -9.0941  -9.0936
    -9.0824  -9.0794  -6.4621  -4.9338  -4.9250  -4.6588  -0.8539  -0.2141
     0.1700   2.0654   2.7416   2.7506   3.0142   3.0350   3.1762   3.2408
     4.5301   5.1714   7.1754   7.3772   7.6701   7.8167   8.2268   8.3459
     9.2461   9.3356   9.5145  10.3489  12.4204  12.4659  13.4483  13.6890
    13.7333  14.0387  14.0745  14.3587  14.4355  14.7109  15.4288  15.4741
    15.9522  16.6680  17.0971  17.1558  17.5353  18.2666  18.4008  18.9075
    19.1616  19.2729  19.6284  19.6940  19.9722  20.4640  20.7499  20.7806

          k = 0.2250 0.0000 0.2250 (  5465 PWs)   bands (ev):

    -9.1957  -9.1804  -9.1752  -9.1390  -9.1328  -9.1162  -9.0936  -9.0931
    -9.0826  -9.0798  -6.3950  -4.9881  -4.9769  -4.6697  -0.8001  -0.1346
     0.2312   1.9530   2.6790   2.6985   2.8585   3.0891   3.1046   3.3038
     4.3525   5.1334   7.2588   7.5312   7.8725   7.9959   8.4518   8.5442
     9.3944   9.5872   9.6398  10.5421  11.9584  12.0118  13.2995  13.4571
    13.4743  13.8198  13.9211  14.1784  14.2699  14.9248  15.2427  15.3690
    15.7152  16.6531  16.9731  17.0577  17.7125  18.2999  18.4352  19.1042
    19.3553  19.3712  19.7009  19.8671  20.0116  20.3249  20.6071  20.9159

          k = 0.2500 0.0000 0.2500 (  5489 PWs)   bands (ev):

    -9.1951  -9.1807  -9.1742  -9.1405  -9.1329  -9.1175  -9.0931  -9.0927
    -9.0829  -9.0803  -6.3215  -5.0419  -5.0280  -4.6867  -0.7467  -0.0616
     0.2891   1.8639   2.5388   2.6464   2.6720   3.1628   3.1705   3.3728
     4.1662   5.0880   7.3445   7.6750   8.0914   8.1868   8.6778   8.7513
     9.4679   9.6683  10.0479  10.7001  11.5135  11.5771  13.1709  13.2142
    13.2402  13.5460  13.7592  13.9332  14.2605  15.0119  15.0331  15.3878
    15.4903  16.5891  16.7771  17.0528  17.9430  18.3128  18.4394  19.2715
    19.3946  19.4103  19.6065  19.7858  20.2269  20.2763  20.6753  20.8056

          k = 0.2750 0.0000 0.2750 (  5468 PWs)   bands (ev):

    -9.1943  -9.1810  -9.1730  -9.1421  -9.1329  -9.1187  -9.0925  -9.0921
    -9.0832  -9.0807  -6.2418  -5.0938  -5.0766  -4.7104  -0.6932   0.0026
     0.3419   1.8013   2.2886   2.5961   2.6030   3.2574   3.2632   3.4479
     3.9754   5.0368   7.4344   7.8033   8.3271   8.3945   8.9025   8.9615
     9.5577   9.7586  10.4533  10.8062  11.1009  11.1814  12.9574  13.0482
    13.0686  13.2659  13.5624  13.6964  14.3266  14.8091  14.9400  15.2851
    15.5725  16.4791  16.5821  17.1038  18.2185  18.2980  18.4094  19.3193
    19.3474  19.3945  19.4788  19.6507  20.1728  20.5276  20.6783  20.9849

          k = 0.3000 0.0000 0.3000 (  5472 PWs)   bands (ev):

    -9.1934  -9.1814  -9.1717  -9.1437  -9.1329  -9.1200  -9.0919  -9.0916
    -9.0836  -9.0812  -6.1567  -5.1431  -5.1221  -4.7424  -0.6389   0.0556
     0.3881   1.7662   2.0351   2.5481   2.5508   3.3710   3.3763   3.5285
     3.7813   4.9780   7.5259   7.9127   8.5742   8.6169   9.1101   9.1569
     9.6644   9.8576  10.6744  10.7469  10.8908  10.9505  12.7042  12.8867
    12.9844  12.9946  13.3421  13.4592  14.4108  14.5711  14.8748  15.0895
    15.7902  16.3444  16.3821  17.1910  18.2482  18.3365  18.5314  19.2104
    19.2295  19.2960  19.4927  19.5437  20.0406  20.6649  20.7411  21.3531

          k = 0.3250 0.0000 0.3250 (  5486 PWs)   bands (ev):

    -9.1926  -9.1820  -9.1704  -9.1454  -9.1328  -9.1214  -9.0913  -9.0910
    -9.0839  -9.0818  -6.0669  -5.1891  -5.1635  -4.7831  -0.5823   0.0963
     0.4275   1.7590   1.7926   2.5036   2.5044   3.5014   3.5067   3.5861
     3.6144   4.9124   7.6181   8.0016   8.8260   8.8470   9.2692   9.3028
     9.7931   9.9656  10.4114  10.4980  10.9506  11.1839  12.4562  12.6759
    12.8400  12.9083  13.1155  13.2373  14.3284  14.3950  14.8999  14.9556
    15.9790  16.1862  16.2249  17.3017  18.1690  18.2365  18.8682  19.0779
    19.1089  19.1768  19.4681  19.4807  19.8349  20.7340  20.8608  21.3995

          k = 0.3500 0.0000 0.3500 (  5484 PWs)   bands (ev):

    -9.1918  -9.1825  -9.1689  -9.1472  -9.1327  -9.1226  -9.0906  -9.0904
    -9.0843  -9.0824  -5.9732  -5.2311  -5.1998  -4.8325  -0.5217   0.1237
     0.4611   1.5651   1.7787   2.4631   2.4639   3.3922   3.6431   3.6503
     3.7067   4.8400   7.7099   8.0680   9.0489   9.0517   9.3390   9.3668
     9.9509  10.0824  10.2838  10.3661  10.9505  11.3829  12.2153  12.4086
    12.7664  12.7667  12.9582  13.1338  14.0894  14.2747  14.7169  15.1804
    15.9755  16.0031  16.2911  17.4316  18.0754  18.1282  18.9426  18.9765
    19.0695  19.2279  19.4106  19.4383  19.6135  20.6140  20.8085  21.5137

          k = 0.3750 0.0000 0.3750 (  5488 PWs)   bands (ev):

    -9.1909  -9.1829  -9.1673  -9.1490  -9.1324  -9.1239  -9.0899  -9.0899
    -9.0848  -9.0830  -5.8769  -5.2688  -5.2301  -4.8904  -0.4556   0.1370
     0.4904   1.3553   1.8234   2.4272   2.4296   3.2017   3.7783   3.8000
     3.8153   4.7615   7.7978   8.1086   9.0505   9.0772   9.4821   9.4871
    10.1252  10.2084  10.3452  10.4007  10.9405  11.4389  11.9808  12.1429
    12.5149  12.5679  12.9131  13.3098  13.8634  14.1213  14.5343  15.4494
    15.8387  15.8560  16.4790  17.5726  17.9797  18.0339  18.8072  18.8717
    18.9520  19.3124  19.3352  19.4020  19.6268  20.2147  20.8302  21.6573

          k = 0.4000 0.0000 0.4000 (  5466 PWs)   bands (ev):

    -9.1900  -9.1835  -9.1656  -9.1508  -9.1321  -9.1251  -9.0893  -9.0892
    -9.0851  -9.0836  -5.7792  -5.3023  -5.2535  -4.9560  -0.3829   0.1351
     0.5179   1.1664   1.8913   2.3970   2.4009   3.0163   3.8852   3.9477
     3.9548   4.6778   7.8777   8.1188   8.8702   8.9339   9.7268   9.7501
    10.2981  10.3473  10.5083  10.5464  10.9324  11.3956  11.7532  11.8870
    12.2317  12.3105  12.9012  13.5178  13.7884  13.9715  14.3630  15.6463
    15.7040  15.8000  16.6806  17.7008  17.8953  17.9908  18.6615  18.7755
    18.8178  19.1976  19.2337  19.2494  19.6438  20.2366  20.7449  21.7843

          k = 0.4250 0.0000 0.4250 (  5470 PWs)   bands (ev):

    -9.1891  -9.1842  -9.1639  -9.1527  -9.1316  -9.1263  -9.0887  -9.0885
    -9.0856  -9.0843  -5.6823  -5.3326  -5.2685  -5.0280  -0.3040   0.1163
     0.5461   1.0019   1.9792   2.3726   2.3786   2.8377   3.9849   4.0821
     4.0898   4.5897   7.9392   8.0962   8.6852   8.7781   9.9948  10.0432
    10.4653  10.5083  10.6942  10.7272  10.9372  11.3059  11.5290  11.6420
    11.9357  12.0332  12.8983  13.3653  13.8446  14.1362  14.2115  15.5963
    15.5977  15.9253  16.9010  17.7432  17.8230  18.0763  18.4757  18.6861
    18.6950  19.0254  19.0308  19.1445  19.5506  20.5317  20.6174  21.8497

          k = 0.4500 0.0000 0.4500 (  5456 PWs)   bands (ev):

    -9.1881  -9.1848  -9.1621  -9.1545  -9.1310  -9.1274  -9.0882  -9.0878
    -9.0860  -9.0849  -5.5893  -5.3615  -5.2728  -5.1024  -0.2198   0.0787
     0.5790   0.8651   2.0848   2.3544   2.3635   2.6681   4.0842   4.1902
     4.2028   4.4983   7.9728   8.0500   8.5573   8.6575  10.2667  10.3449
    10.6261  10.6983  10.8604  10.8818  10.9765  11.1956  11.3122  11.4176
    11.6343  11.7546  12.8963  13.1832  13.7680  14.0299  14.6138  15.5226
    15.5283  15.9446  17.1542  17.7263  17.7684  18.2496  18.2675  18.5883
    18.6016  18.8314  18.8860  19.0538  19.5620  20.2485  21.0331  21.8667

          k = 0.4750 0.0000 0.4750 (  5456 PWs)   bands (ev):

    -9.1873  -9.1856  -9.1602  -9.1564  -9.1303  -9.1285  -9.0877  -9.0872
    -9.0864  -9.0855  -5.5058  -5.3942  -5.2620  -5.1732  -0.1336   0.0220
     0.6211   0.7580   2.2037   2.3399   2.3579   2.5105   4.1798   4.2565
     4.2823   4.4076   7.9775   8.0035   8.5073   8.5733  10.5335  10.6430
    10.7825  10.8983  10.9598  10.9680  11.0265  11.0802  11.1553  11.2212
    11.3382  11.4831  12.9027  13.0354  13.7543  13.8977  15.0587  15.4806
    15.4806  15.7826  17.4307  17.7162  17.7274  17.9994  18.4872  18.5078
    18.5297  18.7611  18.7767  18.9322  19.6283  19.9704  21.4092  21.8262

          k = 0.5000 0.0000 0.5000 (  5472 PWs)   bands (ev):

    -9.1865  -9.1865  -9.1586  -9.1582  -9.1294  -9.1294  -9.0874  -9.0870
    -9.0865  -9.0860  -5.4397  -5.4397  -5.2295  -5.2295  -0.0508  -0.0508
     0.6784   0.6784   2.3105   2.3105   2.3855   2.3855   4.2553   4.2553
     4.3337   4.3337   7.9790   7.9790   8.5205   8.5205  10.7877  10.7877
    10.8689  10.8689  10.9813  10.9813  11.0640  11.0640  11.1194  11.1194
    11.2453  11.2453  12.9414  12.9414  13.7953  13.7953  15.4353  15.4353
    15.4954  15.4954  17.6723  17.6723  17.7607  17.7607  18.4878  18.4878
    18.6800  18.6800  18.7942  18.7942  19.7565  19.7565  21.6850  21.6850

          k = 0.5000 0.0125 0.5125 (  5462 PWs)   bands (ev):

    -9.1869  -9.1860  -9.1593  -9.1574  -9.1299  -9.1290  -9.0875  -9.0870
    -9.0865  -9.0858  -5.4671  -5.4118  -5.2518  -5.2067  -0.0919  -0.0130
     0.6427   0.7099   2.2812   2.3476   2.3506   2.4288   4.2304   4.2772
     4.3051   4.3596   7.9742   7.9846   8.5045   8.5401  10.6535  10.8167
    10.8778  10.8791  10.9301  10.9929  11.0252  11.0559  11.1461  11.1749
    11.2042  11.3691  12.9195  12.9838  13.7685  13.8407  15.3403  15.4009
    15.5238  15.5873  17.5766  17.6927  17.7082  17.8447  18.4661  18.5047
    18.6217  18.7315  18.7654  18.8777  19.6877  19.8542  21.5757  21.7792

          k = 0.5000 0.0250 0.5250 (  5460 PWs)   bands (ev):

    -9.1873  -9.1857  -9.1602  -9.1565  -9.1303  -9.1285  -9.0877  -9.0872
    -9.0864  -9.0855  -5.4938  -5.3835  -5.2736  -5.1838  -0.1360   0.0212
     0.6030   0.7369   2.2590   2.3239   2.3928   2.4799   4.2026   4.2734
     4.2959   4.3819   7.9709   7.9898   8.4916   8.5617  10.5041  10.7404
    10.7919  10.8700  10.8734  11.0107  11.0191  11.0723  11.1667  11.2522
    11.2775  11.5179  12.9173  13.0454  13.7509  13.8965  15.2417  15.3025
    15.6011  15.6715  17.4556  17.6285  17.6980  17.9102  18.3830  18.5511
    18.6258  18.7528  18.7751  19.0029  19.6510  19.9699  21.4595  21.8411

          k = 0.5000 0.0375 0.5375 (  5468 PWs)   bands (ev):

    -9.1878  -9.1854  -9.1611  -9.1556  -9.1307  -9.1281  -9.0879  -9.0875
    -9.0862  -9.0852  -5.5197  -5.3550  -5.2950  -5.1608  -0.1826   0.0516
     0.5600   0.7591   2.2431   2.3057   2.4460   2.5382   4.1719   4.2390
     4.3111   4.4003   7.9697   7.9933   8.4828   8.5843  10.3498  10.6485
    10.6543  10.7967  10.8545  10.9797  11.0501  11.1235  11.2157  11.3052
    11.3941  11.6725  12.9338  13.1255  13.7408  13.9652  15.1431  15.2033
    15.6634  15.7429  17.3364  17.5616  17.6594  17.9355  18.2679  18.6300
    18.6337  18.7662  18.8367  19.1457  19.6483  20.0999  21.3413  21.8460

          k = 0.5000 0.0500 0.5500 (  5462 PWs)   bands (ev):

    -9.1882  -9.1850  -9.1620  -9.1547  -9.1310  -9.1276  -9.0881  -9.0878
    -9.0859  -9.0849  -5.5447  -5.3264  -5.3155  -5.1378  -0.2313   0.0785
     0.5146   0.7773   2.2328   2.2959   2.5072   2.6037   4.1391   4.2019
     4.3235   4.4156   7.9712   7.9940   8.4784   8.6071  10.1965  10.5083
    10.5638  10.7061  10.8369  10.9479  11.0837  11.1740  11.2692  11.3532
    11.5145  11.8268  12.9714  13.2251  13.7463  14.0417  15.0472  15.1060
    15.7096  15.7984  17.2349  17.4987  17.6046  17.9221  18.1485  18.5890
    18.7314  18.8321  18.9171  19.3015  19.6830  20.2413  21.2265  21.7705

          k = 0.5000 0.0625 0.5625 (  5466 PWs)   bands (ev):

    -9.1887  -9.1848  -9.1629  -9.1539  -9.1313  -9.1271  -9.0883  -9.0881
    -9.0857  -9.0846  -5.5687  -5.3353  -5.2980  -5.1150  -0.2814   0.1016
     0.4672   0.7913   2.2275   2.2941   2.5758   2.6754   4.1036   4.1627
     4.3324   4.4266   7.9755   7.9902   8.4789   8.6278  10.0483  10.3736
    10.4715  10.6092  10.8204  10.9188  11.1197  11.2210  11.3155  11.3954
    11.6317  11.9749  13.0263  13.3405  13.7587  14.1232  14.9566  15.0164
    15.7360  15.8277  17.1575  17.4412  17.5396  17.8821  18.0329  18.5124
    18.8401  18.9228  19.0089  19.4693  19.7412  20.3917  21.1159  21.6196

          k = 0.5000 0.0750 0.5750 (  5462 PWs)   bands (ev):

    -9.1891  -9.1845  -9.1637  -9.1531  -9.1315  -9.1266  -9.0885  -9.0884
    -9.0854  -9.0843  -5.5915  -5.3542  -5.2700  -5.0925  -0.3322   0.1215
     0.4189   0.8016   2.2266   2.2992   2.6513   2.7526   4.0663   4.1216
     4.3377   4.4343   7.9807   7.9831   8.4842   8.6439   9.9091  10.2483
    10.3785  10.5097  10.8053  10.8943  11.1573  11.2655  11.3500  11.4351
    11.7429  12.1154  13.0975  13.4717  13.7834  14.2035  14.8711  14.9468
    15.7435  15.8263  17.1079  17.3907  17.4712  17.8273  17.9287  18.4247
    18.9449  19.0238  19.1048  19.6477  19.8175  20.5499  21.0128  21.4232

          k = 0.5000 0.0875 0.5875 (  5464 PWs)   bands (ev):

    -9.1896  -9.1843  -9.1645  -9.1524  -9.1317  -9.1262  -9.0887  -9.0886
    -9.0852  -9.0840  -5.6131  -5.3721  -5.2424  -5.0706  -0.3831   0.1383
     0.3703   0.8088   2.2299   2.3102   2.7326   2.8346   4.0273   4.0793
     4.3396   4.4377   7.9640   7.9935   8.4941   8.6526   9.7830  10.1356
    10.2857  10.4092  10.7904  10.8751  11.1956  11.3081  11.3712  11.4723
    11.8472  12.2452  13.1834  13.6135  13.8176  14.2639  14.7883  14.9174
    15.7327  15.7933  17.0785  17.3459  17.4014  17.7644  17.8431  18.3356
    19.0366  19.1296  19.1984  19.8321  19.8978  20.7092  20.9197  21.2116

          k = 0.5000 0.1000 0.6000 (  5472 PWs)   bands (ev):

    -9.1901  -9.1842  -9.1652  -9.1518  -9.1319  -9.1258  -9.0890  -9.0889
    -9.0849  -9.0837  -5.6334  -5.3891  -5.2156  -5.0495  -0.4334   0.1522
     0.3222   0.8133   2.2370   2.3261   2.8188   2.9203   3.9870   4.0360
     4.3378   4.4373   7.9390   8.0071   8.5088   8.6499   9.6743  10.0353
    10.1944  10.3085  10.7748  10.8623  11.2347  11.3488  11.3815  11.5050
    11.9449  12.3629  13.2814  13.7595  13.8598  14.2846  14.7135  14.9511
    15.7061  15.7334  17.0450  17.3134  17.3324  17.6989  17.7821  18.2538
    19.1100  19.2376  19.2821  19.9688  20.0141  20.8420  20.8461  21.0347

          k = 0.5000 0.1125 0.6125 (  5468 PWs)   bands (ev):

    -9.1905  -9.1841  -9.1658  -9.1512  -9.1319  -9.1254  -9.0893  -9.0890
    -9.0847  -9.0834  -5.6523  -5.4048  -5.1898  -5.0292  -0.4824   0.1636
     0.2755   0.8159   2.2475   2.3459   2.9095   3.0094   3.9461   3.9923
     4.3324   4.4331   7.9057   8.0237   8.5281   8.6332   9.5867   9.9514
    10.1052  10.2087  10.7592  10.8566  11.2739  11.3842  11.3877  11.5334
    12.0370  12.4687  13.3902  13.8974  13.9107  14.2633  14.6595  15.0497
    15.6533  15.6733  16.9808  17.2663  17.3032  17.6340  17.7480  18.1965
    19.1609  19.3451  19.3467  20.0276  20.1746  20.7745  20.7893  21.1044

          k = 0.5000 0.1250 0.6250 (  5460 PWs)   bands (ev):

    -9.1909  -9.1840  -9.1663  -9.1507  -9.1320  -9.1249  -9.0895  -9.0892
    -9.0844  -9.0831  -5.6698  -5.4194  -5.1652  -5.0098  -0.5295   0.1728
     0.2307   0.8166   2.2611   2.3688   3.0032   3.1007   3.9053   3.9486
     4.3229   4.4244   7.8641   8.0431   8.5526   8.6000   9.5225   9.8824
    10.0194  10.1106  10.7436  10.8570  11.3128  11.3804  11.4246  11.5560
    12.1243  12.5634  13.5067  13.9639  14.0025  14.2176  14.6514  15.1977
    15.5677  15.6303  16.8801  17.2042  17.2972  17.5722  17.7435  18.1693
    19.1842  19.3710  19.4547  20.0547  20.2662  20.6907  20.7716  21.2805

          k = 0.5000 0.1375 0.6375 (  5476 PWs)   bands (ev):

    -9.1913  -9.1840  -9.1668  -9.1503  -9.1320  -9.1246  -9.0898  -9.0893
    -9.0842  -9.0829  -5.6859  -5.4329  -5.1421  -4.9919  -0.5743   0.1801
     0.1884   0.8161   2.2766   2.3936   3.0988   3.1932   3.8645   3.9047
     4.3092   4.4113   7.8156   8.0639   8.5514   8.5805   9.4809   9.8276
     9.9361  10.0128  10.7286  10.8628  11.3504  11.3719  11.4585  11.5730
    12.2065  12.6426  13.6288  14.0194  14.0388  14.1615  14.7130  15.3699
    15.4782  15.5875  16.7558  17.1454  17.2658  17.5123  17.7771  18.1735
    19.1731  19.3367  19.5603  20.0414  20.2569  20.7253  20.7940  21.4553

          k = 0.5000 0.1500 0.6500 (  5478 PWs)   bands (ev):

    -9.1917  -9.1840  -9.1673  -9.1499  -9.1320  -9.1243  -9.0900  -9.0895
    -9.0840  -9.0827  -5.7003  -5.4450  -5.1207  -4.9751  -0.6158   0.1492
     0.1858   0.8148   2.2937   2.4197   3.1954   3.2859   3.8254   3.8626
     4.2911   4.3937   7.7618   8.0868   8.4909   8.6128   9.4582   9.7868
     9.8582   9.9190  10.7146  10.8728  11.3596  11.3868  11.4905  11.5843
    12.2866  12.7129  13.7548  14.0121  14.0732  14.1086  14.8449  15.3913
    15.5477  15.5707  16.6185  17.0928  17.1985  17.4600  17.8481  18.2034
    19.1191  19.2347  19.6614  19.9924  20.2320  20.7978  20.8477  21.5827

          k = 0.5000 0.1625 0.6625 (  5480 PWs)   bands (ev):

    -9.1920  -9.1841  -9.1676  -9.1496  -9.1319  -9.1240  -9.0902  -9.0896
    -9.0838  -9.0825  -5.7132  -5.4558  -5.1011  -4.9599  -0.6538   0.1135
     0.1902   0.8129   2.3116   2.4461   3.2918   3.3781   3.7882   3.8221
     4.2683   4.3717   7.7056   8.1107   8.4244   8.6485   9.4491   9.7579
     9.7853   9.8289  10.7022  10.8864  11.3450  11.4211  11.5195  11.5917
    12.3640  12.7721  13.8817  13.9550  14.0519  14.1267  15.0187  15.3118
    15.5161  15.7851  16.4749  17.0458  17.1061  17.4151  17.9453  18.2491
    19.0035  19.0915  19.7499  19.9278  20.2371  20.8459  20.9150  21.5826

          k = 0.5000 0.1750 0.6750 (  5488 PWs)   bands (ev):

    -9.1923  -9.1842  -9.1679  -9.1494  -9.1319  -9.1237  -9.0904  -9.0897
    -9.0837  -9.0824  -5.7244  -5.4652  -5.0836  -4.9466  -0.6877   0.0817
     0.1936   0.8108   2.3293   2.4716   3.3866   3.4685   3.7537   3.7840
     4.2406   4.3457   7.6494   8.1344   8.3570   8.6861   9.4484   9.7177
     9.7400   9.7428  10.6917  10.9030  11.3288  11.4525  11.5451  11.5952
    12.4384  12.8193  13.8899  13.9906  14.0057  14.1772  15.2113  15.2430
    15.4941  16.0087  16.3302  17.0018  17.0053  17.3774  18.0574  18.3042
    18.8163  18.9411  19.7682  19.9156  20.2652  20.8704  20.9703  21.4961

          k = 0.5000 0.1875 0.6875 (  5496 PWs)   bands (ev):

    -9.1926  -9.1843  -9.1681  -9.1493  -9.1318  -9.1235  -9.0905  -9.0898
    -9.0835  -9.0822  -5.7340  -5.4733  -5.0685  -4.9350  -0.7172   0.0542
     0.1960   0.8085   2.3463   2.4957   3.4783   3.5561   3.7227   3.7494
     4.2076   4.3158   7.5961   8.1572   8.2931   8.7260   9.4521   9.6572
     9.6631   9.7297  10.6830  10.9212  11.3117  11.4806  11.5673  11.5950
    12.5105  12.8549  13.8290  13.9317  14.1162  14.2287  15.1880  15.4095
    15.4814  16.1882  16.2371  16.8937  16.9726  17.3520  18.1764  18.3612
    18.5951  18.7721  19.6859  19.9921  20.3049  20.8864  20.9814  21.4579

          k = 0.5000 0.2000 0.7000 (  5494 PWs)   bands (ev):

    -9.1928  -9.1843  -9.1683  -9.1491  -9.1317  -9.1234  -9.0907  -9.0898
    -9.0834  -9.0821  -5.7418  -5.4799  -5.0558  -4.9252  -0.7418   0.0313
     0.1978   0.8066   2.3617   2.5172   3.5652   3.6399   3.6963   3.7190
     4.1695   4.2833   7.5486   8.1782   8.2368   8.7663   9.4576   9.5877
     9.6081   9.7266  10.6766  10.9408  11.2949  11.5046  11.5859  11.5942
    12.5799  12.8777  13.7755  13.8772  14.1921  14.2998  15.1514  15.4763
    15.6023  16.0556  16.4640  16.7934  16.9517  17.3412  18.2961  18.3648
    18.4177  18.5809  19.5837  20.0868  20.3464  20.9040  20.9337  21.4805

          k = 0.5000 0.2125 0.7125 (  5498 PWs)   bands (ev):

    -9.1929  -9.1844  -9.1685  -9.1490  -9.1316  -9.1232  -9.0908  -9.0899
    -9.0833  -9.0820  -5.7480  -5.4851  -5.0458  -4.9176  -0.7613   0.0133
     0.1991   0.8048   2.3746   2.5351   3.6440   3.6751   3.6937   3.7183
     4.1263   4.2490   7.5088   8.1904   8.1962   8.8041   9.4627   9.5236
     9.5662   9.7258  10.6716  10.9587  11.2791  11.5239  11.5922  11.6006
    12.6449  12.8864  13.7322  13.8286  14.2288  14.3851  15.1363  15.4695
    15.7786  15.9405  16.6746  16.7013  16.9587  17.3477  18.1380  18.3763
    18.4045  18.4733  19.4775  20.1836  20.3839  20.8451  20.9284  21.5363

          k = 0.5000 0.2250 0.7250 (  5506 PWs)   bands (ev):

    -9.1931  -9.1845  -9.1686  -9.1490  -9.1315  -9.1231  -9.0909  -9.0900
    -9.0832  -9.0819  -5.7524  -5.4888  -5.0386  -4.9122  -0.7753   0.0003
     0.1998   0.8035   2.3844   2.5486   3.6597   3.6743   3.7101   3.7899
     4.0795   4.2173   7.4789   8.1558   8.2099   8.8363   9.4667   9.4724
     9.5350   9.7271  10.6687  10.9752  11.2659  11.5380  11.5881  11.6111
    12.7039  12.8819  13.7013  13.7896  14.2461  14.4583  15.1454  15.4491
    15.8541  15.9240  16.6321  16.7918  17.0533  17.3774  17.9212  18.1697
    18.4723  18.5473  19.3805  20.2856  20.4134  20.7434  20.9442  21.5955

          k = 0.5000 0.2375 0.7375 (  5510 PWs)   bands (ev):

    -9.1932  -9.1845  -9.1687  -9.1490  -9.1315  -9.1231  -9.0909  -9.0900
    -9.0832  -9.0819  -5.7551  -5.4911  -5.0342  -4.9088  -0.7838  -0.0076
     0.2002   0.8027   2.3906   2.5571   3.6508   3.6622   3.7561   3.8501
     4.0335   4.1919   7.4604   8.1344   8.2187   8.8590   9.4387   9.4692
     9.5163   9.7283  10.6664  10.9849  11.2568  11.5470  11.5860  11.6175
    12.7528  12.8673  13.6849  13.7654  14.2550  14.5043  15.1725  15.4137
    15.8062  16.0220  16.5806  16.8194  17.2328  17.4245  17.7275  17.9933
    18.5012  18.6203  19.3043  20.3809  20.4327  20.6388  20.9581  21.6389

          k = 0.5000 0.2500 0.7500 (  5512 PWs)   bands (ev):

    -9.1932  -9.1844  -9.1687  -9.1490  -9.1315  -9.1230  -9.0909  -9.0900
    -9.0832  -9.0819  -5.7560  -5.4919  -5.0326  -4.9075  -0.7867  -0.0102
     0.2003   0.8023   2.3927   2.5601   3.6480   3.6581   3.7729   3.8788
     4.0087   4.1821   7.4537   8.1270   8.2218   8.8680   9.4268   9.4698
     9.5103   9.7277  10.6654  10.9875  11.2533  11.5502  11.5853  11.6198
    12.7767  12.8557  13.6800  13.7573  14.2576  14.5186  15.1905  15.3916
    15.7924  16.0569  16.5582  16.8241  17.3577  17.4470  17.6183  17.9148
    18.5098  18.6495  19.2730  20.4383  20.4399  20.5748  20.9658  21.6549

          k = 0.4937 0.2562 0.7495 (  5512 PWs)   bands (ev):

    -9.1931  -9.1845  -9.1684  -9.1493  -9.1315  -9.1233  -9.0908  -9.0899
    -9.0832  -9.0820  -5.7493  -5.4845  -5.0403  -4.9131  -0.7871  -0.0155
     0.1763   0.7787   2.4158   2.5834   3.6652   3.6770   3.7661   3.8954
     4.0148   4.1888   7.4346   8.1161   8.1955   8.8429   9.4257   9.4759
     9.5146   9.7327  10.6443  10.9683  11.2964  11.5366  11.5746  11.6275
    12.7942  12.8548  13.7220  13.7934  14.2604  14.5359  15.1727  15.4017
    15.7834  16.0396  16.5684  16.7743  17.3183  17.4305  17.6239  17.9070
    18.5149  18.6486  19.2463  20.3900  20.3983  20.5825  20.9196  21.6911

          k = 0.4875 0.2625 0.7490 (  5506 PWs)   bands (ev):

    -9.1929  -9.1846  -9.1682  -9.1496  -9.1315  -9.1235  -9.0907  -9.0898
    -9.0833  -9.0821  -5.7440  -5.4751  -5.0481  -4.9189  -0.7870  -0.0202
     0.1510   0.7572   2.4389   2.6066   3.6823   3.6961   3.7439   3.9220
     4.0217   4.1999   7.4141   8.1055   8.1655   8.8118   9.4295   9.4833
     9.5261   9.7397  10.6198  10.9536  11.3387  11.5194  11.5289  11.6742
    12.7995  12.8523  13.7713  13.8398  14.2536  14.5622  15.1487  15.4083
    15.7875  16.0194  16.5888  16.7253  17.2685  17.4085  17.6414  17.9101
    18.5148  18.6396  19.2153  20.3313  20.3645  20.6008  20.8625  21.6409

          k = 0.4812 0.2687 0.7485 (  5503 PWs)   bands (ev):

    -9.1926  -9.1847  -9.1680  -9.1499  -9.1314  -9.1238  -9.0906  -9.0896
    -9.0833  -9.0821  -5.7400  -5.4641  -5.0561  -4.9248  -0.7865  -0.0242
     0.1244   0.7378   2.4621   2.6297   3.6994   3.7151   3.7154   3.9476
     4.0306   4.2154   7.3921   8.0951   8.1326   8.7767   9.4364   9.4914
     9.5442   9.7479  10.5923  10.9427  11.3800  11.4829  11.4992  11.7232
    12.7915  12.8510  13.8247  13.8970  14.2401  14.5906  15.1189  15.4115
    15.8019  15.9967  16.6181  16.6772  17.2136  17.3803  17.6643  17.9246
    18.5078  18.6229  19.1806  20.2639  20.3388  20.6265  20.7945  21.5960

          k = 0.4750 0.2750 0.7480 (  5502 PWs)   bands (ev):

    -9.1924  -9.1847  -9.1677  -9.1502  -9.1314  -9.1240  -9.0905  -9.0895
    -9.0834  -9.0822  -5.7372  -5.4517  -5.0643  -4.9308  -0.7854  -0.0276
     0.0967   0.7201   2.4853   2.6529   3.6829   3.7165   3.7352   3.9673
     4.0425   4.2350   7.3685   8.0851   8.0975   8.7393   9.4452   9.5003
     9.5685   9.7568  10.5621  10.9345  11.4203  11.4370  11.4770  11.7729
    12.7731  12.8514  13.8804  13.9654  14.2223  14.6184  15.0846  15.4116
    15.8239  15.9722  16.6316  16.6538  17.1569  17.3489  17.6904  17.9497
    18.4892  18.6018  19.1431  20.1882  20.3190  20.6580  20.7209  21.5568

          k = 0.4687 0.2812 0.7475 (  5498 PWs)   bands (ev):

    -9.1922  -9.1847  -9.1675  -9.1505  -9.1314  -9.1243  -9.0903  -9.0894
    -9.0834  -9.0823  -5.7353  -5.4380  -5.0727  -4.9367  -0.7838  -0.0303
     0.0683   0.7040   2.5083   2.6763   3.6490   3.7335   3.7552   3.9796
     4.0573   4.2590   7.3434   8.0610   8.0758   8.7014   9.4554   9.5098
     9.5978   9.7665  10.5302  10.9287  11.3912  11.4529  11.4601  11.8234
    12.7478  12.8512  13.9379  14.0436  14.2030  14.6435  15.0471  15.4100
    15.8524  15.9465  16.5885  16.6972  17.1003  17.3156  17.7178  17.9845
    18.4530  18.5831  19.1046  20.1052  20.3066  20.6441  20.6949  21.5221

          k = 0.4625 0.2875 0.7470 (  5499 PWs)   bands (ev):

    -9.1920  -9.1848  -9.1673  -9.1508  -9.1314  -9.1245  -9.0902  -9.0893
    -9.0834  -9.0824  -5.7341  -5.4233  -5.0814  -4.9429  -0.7817  -0.0323
     0.0392   0.6894   2.5307   2.6998   3.6139   3.7500   3.7752   3.9864
     4.0730   4.2870   7.3173   8.0230   8.0678   8.6624   9.4660   9.5199
     9.6302   9.7777  10.4973  10.9249  11.3458  11.4274  11.4995  11.8754
    12.7173  12.8499  13.9956  14.1253  14.1832  14.6648  15.0093  15.4075
    15.8857  15.9198  16.5473  16.7494  17.0429  17.2795  17.7447  18.0241
    18.3976  18.5700  19.0674  20.0143  20.3012  20.5617  20.7372  21.4900

          k = 0.4562 0.2937 0.7465 (  5498 PWs)   bands (ev):

    -9.1919  -9.1849  -9.1670  -9.1511  -9.1314  -9.1247  -9.0901  -9.0892
    -9.0835  -9.0825  -5.7335  -5.4077  -5.0903  -4.9491  -0.7791  -0.0335
     0.0098   0.6761   2.5525   2.7238   3.5782   3.7662   3.7952   3.9896
     4.0879   4.3183   7.2903   7.9845   8.0611   8.6241   9.4770   9.5303
     9.6651   9.7903  10.4639  10.9227  11.3009  11.4008  11.5386  11.9272
    12.6832  12.8479  14.0545  14.1638  14.2091  14.6799  14.9740  15.4046
    15.8928  15.9220  16.5100  16.8090  16.9870  17.2433  17.7725  18.0694
    18.3264  18.5609  19.0317  19.9170  20.3013  20.4797  20.7840  21.4613

          k = 0.4500 0.3000 0.7460 (  5503 PWs)   bands (ev):

    -9.1917  -9.1849  -9.1668  -9.1515  -9.1314  -9.1250  -9.0900  -9.0891
    -9.0836  -9.0826  -5.7334  -5.3914  -5.0996  -4.9552  -0.7759  -0.0340
    -0.0198   0.6640   2.5733   2.7483   3.5418   3.7821   3.8148   3.9904
     4.1011   4.3514   7.2626   7.9457   8.0559   8.5868   9.4883   9.5407
     9.7014   9.8038  10.4299  10.9219  11.2568  11.3732  11.5777  11.9783
    12.6463  12.8451  14.1135  14.1453  14.2935  14.6850  14.9445  15.4016
    15.8660  15.9600  16.4754  16.8745  16.9316  17.2061  17.8002  18.1172
    18.2433  18.5534  18.9971  19.8148  20.3046  20.3936  20.8343  21.4351

          k = 0.4437 0.3062 0.7455 (  5500 PWs)   bands (ev):

    -9.1915  -9.1850  -9.1666  -9.1518  -9.1314  -9.1252  -9.0899  -9.0890
    -9.0836  -9.0827  -5.7334  -5.3746  -5.1091  -4.9612  -0.7721  -0.0494
    -0.0336   0.6530   2.5932   2.7737   3.5055   3.7976   3.8340   3.9898
     4.1126   4.3856   7.2348   7.9078   8.0524   8.5507   9.5003   9.5509
     9.7386   9.8194  10.3958  10.9225  11.2136  11.3454  11.6172  12.0288
    12.6080  12.8422  14.1294  14.1734  14.3773  14.6786  14.9246  15.3991
    15.8398  16.0001  16.4452  16.8783  16.9459  17.1707  17.8282  18.1523
    18.1674  18.5469  18.9641  19.7089  20.3105  20.3119  20.8882  21.4123

          k = 0.4375 0.3125 0.7450 (  5501 PWs)   bands (ev):

    -9.1913  -9.1850  -9.1663  -9.1521  -9.1314  -9.1255  -9.0898  -9.0889
    -9.0837  -9.0828  -5.7336  -5.3575  -5.1191  -4.9670  -0.7678  -0.0788
    -0.0323   0.6430   2.6121   2.7999   3.4689   3.8127   3.8525   3.9880
     4.1224   4.4195   7.2071   7.8709   8.0504   8.5166   9.5123   9.5605
     9.7756   9.8360  10.3614  10.9243  11.1716  11.3174  11.6569  12.0776
    12.5680  12.8391  14.1155  14.2320  14.4594  14.6588  14.9156  15.3967
    15.8147  16.0413  16.4193  16.8254  17.0203  17.1368  17.8560  18.0555
    18.2182  18.5403  18.9319  19.6014  20.2278  20.3199  20.9444  21.3904

          k = 0.4312 0.3187 0.7445 (  5499 PWs)   bands (ev):

    -9.1911  -9.1850  -9.1661  -9.1524  -9.1314  -9.1257  -9.0897  -9.0888
    -9.0837  -9.0829  -5.7339  -5.3401  -5.1295  -4.9727  -0.7630  -0.1080
    -0.0302   0.6338   2.6295   2.8272   3.4323   3.8273   3.8702   3.9854
     4.1310   4.4526   7.1802   7.8354   8.0502   8.4840   9.5243   9.5694
     9.8118   9.8544  10.3272  10.9276  11.1311  11.2895  11.6971  12.1242
    12.5274  12.8357  14.1042  14.2895  14.5368  14.6285  14.9160  15.3953
    15.7914  16.0834  16.3987  16.7762  17.0979  17.1052  17.8831  17.9568
    18.2687  18.5336  18.9014  19.4931  20.1467  20.3309  21.0033  21.3710

          k = 0.4250 0.3250 0.7440 (  5499 PWs)   bands (ev):

    -9.1909  -9.1851  -9.1659  -9.1527  -9.1313  -9.1259  -9.0895  -9.0887
    -9.0838  -9.0830  -5.7341  -5.3225  -5.1404  -4.9782  -0.7577  -0.1368
    -0.0271   0.6254   2.6454   2.8556   3.3957   3.8414   3.8871   3.9819
     4.1385   4.4840   7.1544   7.8015   8.0517   8.4530   9.5361   9.5772
     9.8466   9.8740  10.2934  10.9316  11.0925  11.2623  11.7378  12.1682
    12.4867  12.8324  14.0961  14.3447  14.5921  14.6079  14.9216  15.3936
    15.7701  16.1262  16.3837  16.7295  17.0762  17.1740  17.8593  17.9091
    18.3175  18.5265  18.8735  19.3844  20.0674  20.3408  21.0633  21.3535

          k = 0.4187 0.3312 0.7435 (  5497 PWs)   bands (ev):

    -9.1907  -9.1851  -9.1656  -9.1530  -9.1313  -9.1261  -9.0894  -9.0886
    -9.0839  -9.0831  -5.7343  -5.3049  -5.1517  -4.9834  -0.7519  -0.1650
    -0.0230   0.6177   2.6598   2.8851   3.3593   3.8549   3.9028   3.9778
     4.1451   4.5131   7.1303   7.7697   8.0551   8.4240   9.5476   9.5839
     9.8792   9.8950  10.2599  10.9371  11.0562  11.2356  11.7789  12.2089
    12.4459  12.8293  14.0911  14.3961  14.5529  14.6729  14.9300  15.3928
    15.7513  16.1697  16.3745  16.6860  17.0514  17.2450  17.7688  17.9332
    18.3637  18.5191  18.8484  19.2784  19.9912  20.3513  21.1246  21.3372

          k = 0.4125 0.3375 0.7430 (  5493 PWs)   bands (ev):

    -9.1905  -9.1851  -9.1654  -9.1533  -9.1313  -9.1264  -9.0893  -9.0885
    -9.0839  -9.0832  -5.7343  -5.2873  -5.1635  -4.9882  -0.7456  -0.1925
    -0.0179   0.6107   2.6728   2.9157   3.3231   3.8677   3.9172   3.9730
     4.1509   4.5395   7.1084   7.7404   8.0600   8.3971   9.5590   9.5894
     9.9089   9.9169  10.2272  10.9438  11.0225  11.2098  11.8208  12.2458
    12.4050  12.8266  14.0898  14.4431  14.5135  14.7306  14.9392  15.3923
    15.7354  16.2136  16.3705  16.6465  17.0319  17.2982  17.6970  17.9543
    18.4055  18.5114  18.8268  19.1769  19.9202  20.3612  21.1871  21.3225

          k = 0.4062 0.3437 0.7425 (  5494 PWs)   bands (ev):

    -9.1903  -9.1851  -9.1652  -9.1536  -9.1313  -9.1266  -9.0892  -9.0884
    -9.0840  -9.0833  -5.7341  -5.2698  -5.1759  -4.9928  -0.7389  -0.2194
    -0.0118   0.6042   2.6844   2.9473   3.2869   3.8799   3.9301   3.9676
     4.1558   4.5623   7.0891   7.7135   8.0666   8.3722   9.5696   9.5934
     9.9349   9.9395  10.1950  10.9517  10.9920  11.1848  11.8631  12.2783
    12.3635  12.8243  14.0910  14.4756  14.4831  14.7813  14.9474  15.3925
    15.7228  16.2576  16.3700  16.6123  17.0179  17.3117  17.6638  17.9708
    18.4408  18.5039  18.8081  19.0826  19.8534  20.3693  21.2489  21.3083

          k = 0.4000 0.3500 0.7420 (  5493 PWs)   bands (ev):

    -9.1901  -9.1852  -9.1649  -9.1539  -9.1313  -9.1268  -9.0890  -9.0883
    -9.0841  -9.0834  -5.7337  -5.2524  -5.1889  -4.9969  -0.7318  -0.2454
    -0.0045   0.5983   2.6946   2.9800   3.2511   3.8911   3.9416   3.9616
     4.1600   4.5815   7.0729   7.6893   8.0750   8.3496   9.5798   9.5962
     9.9565   9.9626  10.1640  10.9610  10.9653  11.1616  11.9061  12.3061
    12.3228  12.8224  14.0953  14.4414  14.5152  14.8252  14.9541  15.3935
    15.7139  16.3019  16.3699  16.5849  17.0112  17.2738  17.6818  17.9802
    18.4679  18.4977  18.7941  18.9979  19.7917  20.3767  21.2949  21.3099

          k = 0.3937 0.3562 0.7415 (  5493 PWs)   bands (ev):

    -9.1899  -9.1852  -9.1647  -9.1542  -9.1313  -9.1270  -9.0889  -9.0882
    -9.0841  -9.0835  -5.7330  -5.2352  -5.2023  -5.0007  -0.7243  -0.2705
     0.0038   0.5929   2.7034   3.0135   3.2156   3.9015   3.9516   3.9551
     4.1636   4.5964   7.0602   7.6680   8.0847   8.3293   9.5893   9.5975
     9.9729   9.9844  10.1356  10.9428  10.9716  11.1400  11.9494  12.2826
    12.3285  12.8216  14.1011  14.4121  14.5380  14.8626  14.9579  15.3952
    15.7091  16.3458  16.3663  16.5669  17.0146  17.2027  17.7303  17.9802
    18.4854  18.4940  18.7854  18.9266  19.7387  20.3825  21.2823  21.3663

          k = 0.3875 0.3625 0.7410 (  5490 PWs)   bands (ev):

    -9.1897  -9.1852  -9.1645  -9.1545  -9.1312  -9.1272  -9.0888  -9.0881
    -9.0842  -9.0836  -5.7320  -5.2183  -5.2163  -5.0040  -0.7165  -0.2947
     0.0134   0.5879   2.7110   3.0479   3.1804   3.9107   3.9480   3.9604
     4.1666   4.6069   7.0514   7.6496   8.0962   8.3116   9.5977   9.5980
     9.9835  10.0021  10.1130  10.9249  10.9836  11.1209  11.9929  12.2432
    12.3458  12.8212  14.1071  14.3897  14.5505  14.8940  14.9594  15.3976
    15.7098  16.3557  16.3898  16.5600  17.0305  17.1201  17.7865  17.9672
    18.4934  18.4951  18.7837  18.8699  19.6984  20.3860  21.2699  21.4024

          k = 0.3812 0.3687 0.7405 (  5488 PWs)   bands (ev):

    -9.1895  -9.1852  -9.1643  -9.1547  -9.1312  -9.1274  -9.0887  -9.0880
    -9.0842  -9.0837  -5.7307  -5.2309  -5.2017  -5.0069  -0.7084  -0.3178
     0.0241   0.5833   2.7173   3.0829   3.1457   3.9184   3.9405   3.9677
     4.1689   4.6130   7.0468   7.6341   8.1091   8.2963   9.5966   9.6058
     9.9875  10.0078  10.1038  10.9114  10.9971  11.1036  12.0372  12.2032
    12.3575  12.8210  14.1137  14.3767  14.5527  14.9192  14.9571  15.4012
    15.7152  16.3373  16.4334  16.5611  17.0359  17.0584  17.8384  17.9380
    18.4949  18.5021  18.7905  18.8258  19.6694  20.3880  21.2572  21.3877

          k = 0.3750 0.3750 0.7400 (  5487 PWs)   bands (ev):

    -9.1893  -9.1853  -9.1640  -9.1550  -9.1312  -9.1276  -9.0886  -9.0879
    -9.0843  -9.0838  -5.7291  -5.2460  -5.1854  -5.0094  -0.7001  -0.3399
     0.0360   0.5792   2.7225   3.1112   3.1186   3.9243   3.9325   3.9744
     4.1704   4.6142   7.0464   7.6213   8.1233   8.2840   9.5942   9.6127
     9.9850   9.9959  10.1131  10.9022  11.0120  11.0897  12.0812  12.1643
    12.3637  12.8216  14.1168  14.3746  14.5452  14.9387  14.9495  15.4053
    15.7265  16.3137  16.4747  16.5666  16.9556  17.0996  17.8789  17.8928
    18.4947  18.5153  18.7905  18.8083  19.6546  20.3865  21.2448  21.3473

          k = 0.3562 0.3562 0.7030 (  5485 PWs)   bands (ev):

    -9.1891  -9.1853  -9.1639  -9.1555  -9.1311  -9.1278  -9.0885  -9.0878
    -9.0842  -9.0838  -5.7454  -5.2250  -5.1545  -5.0299  -0.7171  -0.4021
    -0.0028   0.5681   2.8631   3.1198   3.1337   3.9089   3.9280   3.9645
     4.4048   4.5912   6.8661   7.5576   8.0063   8.2164   9.6956   9.7055
     9.8956   9.9893  10.1001  10.8624  10.9813  11.0723  12.1576  12.2064
    12.4674  12.6315  14.2483  14.3597  14.7183  14.9153  15.0414  15.1073
    16.1981  16.4023  16.7199  16.8517  17.0968  17.2206  17.6450  17.6549
    18.0670  18.3597  18.3775  18.6911  19.1599  20.6591  21.1418  21.4535

          k = 0.3375 0.3375 0.6660 (  5492 PWs)   bands (ev):

    -9.1887  -9.1855  -9.1637  -9.1561  -9.1310  -9.1282  -9.0883  -9.0876
    -9.0843  -9.0839  -5.7506  -5.2239  -5.1213  -5.0543  -0.7054  -0.4524
    -0.0047   0.5634   2.9794   3.0636   3.1195   3.9064   3.9292   3.9667
     4.5372   4.5466   6.7949   7.5269   7.9622   8.1882   9.7594   9.7678
     9.8297  10.0069  10.0780  10.8469  10.9706  11.0552  12.2029  12.2554
    12.4922  12.5113  14.2395  14.5603  14.6475  14.7810  15.0888  15.0955
    16.4519  16.5813  16.8255  16.9237  17.0649  17.1259  17.7066  17.7214
    17.7289  18.1123  18.3784  18.6996  18.8424  20.8217  21.0166  21.5634

          k = 0.3187 0.3187 0.6290 (  5493 PWs)   bands (ev):

    -9.1883  -9.1854  -9.1632  -9.1568  -9.1310  -9.1286  -9.0880  -9.0874
    -9.0844  -9.0841  -5.7443  -5.2646  -5.0865  -5.0580  -0.6736  -0.4891
     0.0388   0.5647   2.9423   2.9641   3.2244   3.9033   3.9144   3.9697
     4.4716   4.5359   6.8672   7.5379   8.0062   8.2085   9.7286   9.7745
     9.7899   9.9299  10.1536  10.8694  11.0158  11.0629  12.0678  12.3559
    12.4845  12.5203  14.1935  14.5269  14.7181  14.7391  15.0774  15.1008
    16.4203  16.4715  16.5632  16.9343  17.0842  17.3387  17.5056  17.7356
    17.7670  18.1538  18.6716  18.7958  18.9983  20.5998  21.1204  21.5439

          k = 0.3000 0.3000 0.5920 (  5506 PWs)   bands (ev):

    -9.1877  -9.1854  -9.1625  -9.1576  -9.1310  -9.1291  -9.0876  -9.0872
    -9.0848  -9.0846  -5.7263  -5.3461  -5.0510  -5.0394  -0.6318  -0.5119
     0.1345   0.5711   2.8299   2.8407   3.3858   3.8705   3.8739   3.9842
     4.3799   4.4075   7.0622   7.5786   8.1370   8.2842   9.6721   9.6977
     9.7090   9.8160  10.2891  10.8880  11.1345  11.1417  11.8851  12.2575
    12.5558  12.6309  14.1079  14.4958  14.6002  14.7139  14.9754  15.2332
    16.1784  16.3207  16.3922  16.9289  17.0284  17.2142  17.6047  17.7280
    18.0167  18.4119  18.6480  19.3787  19.4940  20.3562  21.0796  21.3872

          k = 0.2812 0.2812 0.5550 (  5503 PWs)   bands (ev):

    -9.1870  -9.1854  -9.1616  -9.1583  -9.1308  -9.1295  -9.0871  -9.0869
    -9.0853  -9.0851  -5.6966  -5.4517  -5.0152  -5.0107  -0.5868  -0.5221
     0.2840   0.5807   2.7005   2.7060   3.5539   3.7982   3.8136   4.0195
     4.1991   4.2766   7.3185   7.6246   8.3366   8.4201   9.5655   9.5683
     9.6447   9.7000  10.4730  10.8750  11.2945  11.3078  11.7183  11.9833
    12.7031  12.7604  14.0354  14.1246  14.3610  14.8150  14.9477  15.4807
    15.8436  16.2767  16.4151  16.6368  17.1356  17.1919  17.6564  17.6967
    18.3552  18.6169  18.9215  19.9729  20.0528  20.1456  20.9938  21.1626

          k = 0.2625 0.2625 0.5180 (  5506 PWs)   bands (ev):

    -9.1861  -9.1856  -9.1605  -9.1592  -9.1305  -9.1300  -9.0866  -9.0865
    -9.0859  -9.0857  -5.6554  -5.5707  -4.9797  -4.9787  -0.5414  -0.5220
     0.4832   0.5914   2.5673   2.5691   3.6748   3.7046   3.7813   3.9606
     4.0702   4.1597   7.5681   7.6572   8.5572   8.5816   9.4553   9.4570
     9.6056   9.6121  10.6997  10.8427  11.4363  11.4814  11.6127  11.6685
    12.8251  12.8498  13.7286  13.7316  14.3869  14.5934  15.2611  15.5420
    15.7595  16.0673  16.5369  16.5607  17.2654  17.2749  17.6856  17.6943
    18.5698  18.5929  19.5046  19.8888  20.5241  20.5471  20.9320  20.9897

          k = 0.2437 0.2437 0.4810 (  5502 PWs)   bands (ev):

    -9.1859  -9.1853  -9.1604  -9.1589  -9.1305  -9.1299  -9.0868  -9.0866
    -9.0861  -9.0857  -5.6964  -5.6032  -4.9456  -4.9449  -0.5159  -0.4967
     0.5997   0.7252   2.4379   2.4401   3.5931   3.6093   3.7239   3.9267
     4.0358   4.1350   7.6731   7.7450   8.6633   8.6815   9.4567   9.4741
     9.5922   9.5942  10.7976  10.9576  11.2829  11.3958  11.6875  11.6979
    12.7653  12.7929  13.5274  13.5340  14.3096  14.5526  15.3396  15.6200
    15.7222  16.0500  16.6599  16.6740  17.4311  17.4333  17.7295  17.7350
    18.5300  18.5829  19.6850  20.0708  20.7120  20.7858  21.0355  21.0772

          k = 0.2250 0.2250 0.4440 (  5493 PWs)   bands (ev):

    -9.1864  -9.1845  -9.1617  -9.1570  -9.1308  -9.1289  -9.0876  -9.0875
    -9.0857  -9.0850  -5.8241  -5.5405  -4.9127  -4.9110  -0.5091  -0.4547
     0.6011   1.0026   2.3210   2.3278   3.4338   3.5151   3.5472   3.9094
     4.0979   4.2124   7.6740   7.8079   8.5881   8.6161   9.4756   9.6221
     9.7280   9.7546  10.7376  11.0075  11.2397  11.3009  11.6799  11.7310
    12.5886  12.6488  13.5765  13.6119  14.0314  14.7506  15.2235  15.3965
    16.0129  16.3427  16.7446  16.7843  17.6283  17.6527  17.8234  17.8318
    18.2530  18.5957  19.4980  20.3763  20.6559  20.8213  21.2005  21.3774

          k = 0.2062 0.2062 0.4070 (  5488 PWs)   bands (ev):

    -9.1873  -9.1836  -9.1633  -9.1549  -9.1312  -9.1275  -9.0885  -9.0884
    -9.0852  -9.0842  -5.9503  -5.4682  -4.8805  -4.8782  -0.5082  -0.4191
     0.5906   1.3086   2.2274   2.2402   3.2394   3.4232   3.4375   3.7836
     4.2665   4.3009   7.6610   7.7661   8.4293   8.4495   9.4319   9.6106
    10.0707  10.0719  10.6573  10.9378  11.1944  11.3106  11.4261  11.7317
    12.6182  12.7063  13.5392  13.8161  13.9669  14.9500  15.1122  15.1645
    16.4149  16.6283  16.7895  16.8734  17.7559  17.7975  17.8478  18.0774
    18.0839  18.6452  19.3297  20.1820  20.5869  20.7676  21.1947  21.5312

          k = 0.1875 0.1875 0.3700 (  5490 PWs)   bands (ev):

    -9.1883  -9.1829  -9.1652  -9.1524  -9.1315  -9.1259  -9.0894  -9.0894
    -9.0848  -9.0833  -6.0722  -5.3874  -4.8491  -4.8466  -0.5199  -0.3947
     0.5625   1.6354   2.1658   2.1893   3.0696   3.3392   3.3482   3.6612
     4.3979   4.4320   7.6326   7.6603   8.2514   8.2523   9.3737   9.4260
    10.3082  10.3375  10.5445  11.0272  11.0910  11.1434  11.2212  12.0278
    12.7646  12.9146  13.4067  14.0583  14.1319  14.9014  15.1209  15.1344
    16.7206  16.8059  16.9135  17.0171  17.4205  17.8299  17.8868  18.4007
    18.4533  18.7631  19.1835  19.8096  20.5195  20.6150  21.0998  21.1402

          k = 0.1687 0.1687 0.3330 (  5477 PWs)   bands (ev):

    -9.1895  -9.1822  -9.1672  -9.1497  -9.1316  -9.1239  -9.0904  -9.0903
    -9.0844  -9.0825  -6.1873  -5.2995  -4.8190  -4.8164  -0.5497  -0.3860
     0.5129   1.9586   2.1444   2.2034   2.9421   3.2651   3.2716   3.5445
     4.5052   4.5871   7.5260   7.5834   8.0501   8.0813   9.1321   9.3098
    10.1256  10.1534  10.4057  10.8742  11.2955  11.3847  11.5102  12.3953
    12.8923  13.1765  13.4142  14.3189  14.3276  14.7800  15.0779  15.3007
    16.7665  16.8286  17.0785  17.1768  17.3149  17.8820  17.9360  18.7028
    18.8650  18.9550  19.1208  19.4118  20.3628  20.4534  20.6923  21.0630

          k = 0.1500 0.1500 0.2960 (  5479 PWs)   bands (ev):

    -9.1909  -9.1817  -9.1693  -9.1468  -9.1318  -9.1218  -9.0914  -9.0912
    -9.0839  -9.0817  -6.2941  -5.2065  -4.7902  -4.7877  -0.6001  -0.3953
     0.4407   2.1353   2.1670   2.4248   2.8597   3.2010   3.2062   3.4359
     4.6186   4.7311   7.3836   7.5055   7.8523   7.9310   8.8022   9.2421
     9.7012   9.7305  10.2621  10.6529  11.7549  11.8191  11.9695  12.7867
    12.9941  13.4587  13.5776  14.4424  14.5882  14.8061  15.0044  15.4439
    16.5745  16.8783  16.9659  17.3961  17.5959  17.9135  17.9570  18.8913
    18.9673  19.0115  19.3060  19.4428  19.9551  20.4006  20.4856  20.9537

          k = 0.1312 0.1312 0.2590 (  5463 PWs)   bands (ev):

    -9.1923  -9.1811  -9.1713  -9.1440  -9.1319  -9.1196  -9.0923  -9.0921
    -9.0834  -9.0809  -6.3910  -5.1103  -4.7631  -4.7605  -0.6698  -0.4218
     0.3503   2.2235   2.2331   2.7917   2.8204   3.1472   3.1515   3.3372
     4.7355   4.8621   7.2462   7.3976   7.6650   7.7989   8.4699   9.1257
     9.2883   9.3093  10.0984  10.3830  12.2771  12.3310  12.4710  13.1360
    13.1929  13.7501  13.8107  14.4672  14.8086  14.8598  15.0333  15.5663
    16.3943  16.9284  16.9751  17.5855  17.7796  17.9281  17.9399  18.6143
    18.8037  19.3298  19.3433  19.7258  19.8270  20.4232  20.4590  20.8043

          k = 0.1125 0.1125 0.2220 (  5471 PWs)   bands (ev):

    -9.1938  -9.1807  -9.1732  -9.1413  -9.1320  -9.1175  -9.0932  -9.0929
    -9.0830  -9.0802  -6.4770  -5.0141  -4.7381  -4.7356  -0.7545  -0.4615
     0.2492   2.3326   2.3364   2.8165   3.1010   3.1065   3.1868   3.2491
     4.8516   4.9773   7.1199   7.2669   7.4880   7.6651   8.1445   8.7655
     8.8748   9.1972   9.9233  10.1008  12.8205  12.8674  12.9912  13.3349
    13.6023  14.0424  14.0542  14.4929  14.5945  15.1239  15.2479  15.6659
    16.3308  16.9886  17.0098  17.7371  17.8557  17.8668  17.9489  18.3102
    18.7198  18.9423  19.4944  19.6803  20.1491  20.4834  20.5820  20.7405

          k = 0.0937 0.0937 0.1850 (  5468 PWs)   bands (ev):

    -9.1952  -9.1803  -9.1750  -9.1387  -9.1320  -9.1155  -9.0940  -9.0937
    -9.0825  -9.0795  -6.5511  -4.9211  -4.7155  -4.7131  -0.8471  -0.5086
     0.1468   2.4654   2.4671   2.8384   3.0665   3.0705   3.1733   3.5906
     4.9642   5.0759   7.0097   7.1222   7.3237   7.5099   7.8313   8.3792
     8.5137   9.1719   9.7490   9.8379  13.3673  13.3967  13.5151  13.5895
    14.0082  14.2187  14.3300  14.3681  14.5946  15.3753  15.4707  15.7479
    16.3674  17.0512  17.0664  17.6671  17.8161  17.9039  18.0139  18.1142
    18.5490  18.6478  19.4335  19.5154  20.0672  20.3829  20.4182  20.9080

          k = 0.0750 0.0750 0.1480 (  5479 PWs)   bands (ev):

    -9.1965  -9.1800  -9.1765  -9.1365  -9.1320  -9.1138  -9.0948  -9.0943
    -9.0822  -9.0790  -6.6126  -4.8356  -4.6961  -4.6936  -0.9395  -0.5568
     0.0519   2.6111   2.6118   2.8758   3.0388   3.0424   3.1102   3.9985
     5.0679   5.1565   6.9187   6.9581   7.1733   7.3290   7.5347   8.0418
     8.2198   9.1718   9.5855   9.6154  13.7895  13.8976  13.9024  14.0254
    14.0904  14.3935  14.4965  14.6055  14.7433  15.6085  15.6744  15.8141
    16.4568  17.0626  17.1650  17.4248  17.7999  17.9730  17.9740  18.1047
    18.2662  18.5793  19.2702  19.3058  19.6865  20.0057  20.1386  20.5890

          k = 0.0562 0.0562 0.1110 (  5478 PWs)   bands (ev):

    -9.1974  -9.1797  -9.1778  -9.1346  -9.1321  -9.1124  -9.0954  -9.0948
    -9.0819  -9.0785  -6.6610  -4.7620  -4.6800  -4.6776  -1.0232  -0.6004
    -0.0283   2.7547   2.7550   2.9184   3.0183   3.0215   3.0608   4.4044
     5.1568   5.2194   6.7556   6.8502   7.0412   7.1513   7.2678   7.7675
     8.0010   9.1886   9.4426   9.4471  13.6972  14.1286  14.3814  14.4650
    14.4981  14.6504  14.7395  14.8600  14.9314  15.8280  15.8577  15.8688
    16.5640  16.9846  17.1921  17.2828  17.7732  17.8715  18.0286  18.1553
    18.2224  18.5134  19.0649  19.0853  19.2740  19.5939  19.7812  20.0600

          k = 0.0375 0.0375 0.0740 (  5474 PWs)   bands (ev):

    -9.1981  -9.1795  -9.1787  -9.1332  -9.1320  -9.1114  -9.0958  -9.0952
    -9.0817  -9.0782  -6.6958  -4.7047  -4.6680  -4.6657  -1.0901  -0.6348
    -0.0888   2.8782   2.8783   2.9568   3.0042   3.0068   3.0257   4.7938
     5.2237   5.2661   6.5047   6.8077   6.9327   7.0096   7.0499   7.5652
     7.8518   9.2122   9.3287   9.3349  13.5088  14.3946  14.7066  14.7703
    14.8948  14.9212  15.0151  15.0823  15.1019  15.9067  16.0272  16.0581
    16.6482  16.8410  16.9576  17.4001  17.7664  17.9076  18.0429  18.1568
    18.3615  18.4542  18.8293  18.8558  18.9655  19.1960  19.4299  19.5540

          k = 0.0187 0.0187 0.0370 (  5467 PWs)   bands (ev):

    -9.1986  -9.1794  -9.1792  -9.1323  -9.1320  -9.1107  -9.0960  -9.0954
    -9.0815  -9.0780  -6.7168  -4.6684  -4.6606  -4.6584  -1.1332  -0.6567
    -0.1263   2.9621   2.9630   2.9832   2.9959   2.9969   3.0068   5.1325
     5.2641   5.2966   6.2428   6.7951   6.8568   6.9001   6.9169   7.4433
     7.7670   9.2322   9.2620   9.2650  13.3844  14.5964  14.8090  15.0139
    15.1573  15.1674  15.1857  15.2144  15.2577  15.9318  16.1857  16.2907
    16.6788  16.7243  16.7617  17.4848  17.7863  17.9155  18.0535  18.2304
    18.4776  18.5452  18.5822  18.6898  18.7875  18.8959  19.0856  19.1437

          k = 0.0000 0.0000 0.0000 (  5449 PWs)   bands (ev):

    -9.1987  -9.1794  -9.1794  -9.1320  -9.1320  -9.1105  -9.0961  -9.0954
    -9.0815  -9.0779  -6.7238  -4.6579  -4.6559  -4.6559  -1.1482  -0.6641
    -0.1390   2.9868   2.9933   2.9933   2.9938   2.9938   3.0045   5.2681
     5.3088   5.3088   6.1016   6.8136   6.8277   6.8277   6.8850   7.4042
     7.7392   9.2401   9.2401   9.2417  13.3413  14.6781  14.8577  15.0948
    15.2424  15.2424  15.2517  15.2517  15.3317  15.9405  16.2669  16.4106
    16.6702  16.6702  16.6995  17.5131  17.8030  17.8030  18.2851  18.2921
    18.2921  18.5974  18.5974  18.7559  18.7806  18.7818  18.7818  18.9293

     Writing all to output data dir ./outputs/gaalas50.save/

     init_run     :      1.28s CPU      1.49s WALL (       1 calls)
     electrons    :    505.05s CPU    509.73s WALL (       1 calls)

     Called by init_run:
     wfcinit      :      0.00s CPU      0.00s WALL (       1 calls)
     potinit      :      0.57s CPU      0.59s WALL (       1 calls)
     hinit0       :      0.53s CPU      0.56s WALL (       1 calls)

     Called by electrons:
     c_bands      :    505.05s CPU    509.70s WALL (       1 calls)
     v_of_rho     :      0.02s CPU      0.03s WALL (       1 calls)
     newd         :      0.15s CPU      0.28s WALL (       1 calls)
     PAW_pot      :      0.54s CPU      0.56s WALL (       1 calls)

     Called by c_bands:
     init_us_2    :      0.12s CPU      0.14s WALL (      81 calls)
     init_us_2:cp :      0.12s CPU      0.14s WALL (      81 calls)
     cegterg      :    491.28s CPU    392.87s WALL (     217 calls)

     Called by *egterg:
     cdiaghg      :     51.41s CPU     18.98s WALL (    3694 calls)
     h_psi        :    221.57s CPU    193.47s WALL (    3911 calls)
     s_psi        :     26.71s CPU     79.99s WALL (    3911 calls)
     g_psi        :      4.24s CPU      4.37s WALL (    3613 calls)

     Called by h_psi:
     h_psi:calbec :     27.72s CPU     -5.93s WALL (    3911 calls)
     vloc_psi     :    164.61s CPU    135.01s WALL (    3911 calls)
     add_vuspsi   :     27.28s CPU     62.32s WALL (    3911 calls)

     General routines
     calbec       :     27.69s CPU     -5.95s WALL (    3911 calls)
     fft          :      0.18s CPU      0.19s WALL (      12 calls)
     fftw         :    144.93s CPU    114.63s WALL (  249314 calls)
     davcio       :      0.13s CPU      0.98s WALL (     162 calls)

     Parallel routines

     PWSCF        :   8m26.79s CPU   8m34.12s WALL


   This run was terminated on:   6:43:18  16Dec2024            

=------------------------------------------------------------------------------=
   JOB DONE.
=------------------------------------------------------------------------------=
