
     Program PWSCF v.7.0 starts on 16Dec2024 at  6:43:48 

     This program is part of the open-source Quantum ESPRESSO suite
     for quantum simulation of materials; please cite
         "P. Giannozzi et al., J. Phys.:Condens. Matter 21 395502 (2009);
         "P. Giannozzi et al., J. Phys.:Condens. Matter 29 465901 (2017);
         "P. Giannozzi et al., J. Chem. Phys. 152 154105 (2020);
          URL http://www.quantum-espresso.org", 
     in publications or presentations arising from this work. More details at
     http://www.quantum-espresso.org/quote

     Parallel version (MPI & OpenMP), running on       2 processor cores
     Number of MPI processes:                 2
     Threads/MPI process:                     1

     MPI processes distributed on     1 nodes
     R & G space division:  proc/nbgrp/npool/nimage =       2
     142 MiB available memory on the printing compute node when the environment starts

     Reading input from pw.bands.75.in

     Current dimensions of program PWSCF are:
     Max number of different atomic species (ntypx) = 10
     Max number of k-points (npk) =  40000
     Max angular momentum in pseudopotentials (lmaxx) =  4

     Atomic positions and unit cell read from directory:
     ./outputs/gaalas75.save/

     file Ga.pbe-dn-kjpaw_psl.1.0.0.UPF: wavefunction(s)  4S renormalized
     file Al.pbe-n-kjpaw_psl.1.0.0.UPF: wavefunction(s)  3S 3P renormalized

     IMPORTANT: XC functional enforced from input :
     Exchange-correlation= PBE
                           (   1   4   3   4   0   0   0)
     Any further DFT definition will be discarded
     Please, verify this is what you really want

     Message from routine setup:
     using ibrav=0 with symmetry is DISCOURAGED, use correct ibrav instead

     Subspace diagonalization in iterative solution of the eigenvalue problem:
     a serial algorithm will be used


     Parallelization info
     --------------------
     sticks:   dense  smooth     PW     G-vecs:    dense   smooth      PW
     Min         744     744    218                21909    21909    3488
     Max         745     745    219                21910    21910    3491
     Sum        1489    1489    437                43819    43819    6979

     Using Slab Decomposition



     bravais-lattice index     =            0
     lattice parameter (alat)  =      10.8663  a.u.
     unit-cell volume          =    1283.0421 (a.u.)^3
     number of atoms/cell      =            8
     number of atomic types    =            3
     number of electrons       =        42.00
     number of Kohn-Sham states=           64
     kinetic-energy cutoff     =      40.0000  Ry
     charge density cutoff     =     160.0000  Ry
     Exchange-correlation= PBE
                           (   1   4   3   4   0   0   0)

     celldm(1)=  10.866265  celldm(2)=   0.000000  celldm(3)=   0.000000
     celldm(4)=   0.000000  celldm(5)=   0.000000  celldm(6)=   0.000000

     crystal axes: (cart. coord. in units of alat)
               a(1) = (   1.000000   0.000000   0.000000 )  
               a(2) = (   0.000000   1.000000   0.000000 )  
               a(3) = (   0.000000   0.000000   1.000000 )  

     reciprocal axes: (cart. coord. in units 2 pi/alat)
               b(1) = (  1.000000  0.000000  0.000000 )  
               b(2) = (  0.000000  1.000000  0.000000 )  
               b(3) = (  0.000000  0.000000  1.000000 )  


     PseudoPot. # 1 for As read from file:
     ../Pseudopotentials/As.pbe-n-kjpaw_psl.1.0.0.UPF
     MD5 check sum: 21b474db91924651be503153fb2dbf55
     Pseudo is Projector augmented-wave + core cor, Zval =  5.0
     Generated using &quot;atomic&quot; code by A. Dal Corso  v.6.3
     Shape of augmentation charge: PSQ
     Using radial grid of 1209 points,  4 beta functions with: 
                l(1) =   0
                l(2) =   0
                l(3) =   1
                l(4) =   1
     Q(r) pseudized with 0 coefficients 


     PseudoPot. # 2 for Ga read from file:
     ../Pseudopotentials/Ga.pbe-dn-kjpaw_psl.1.0.0.UPF
     MD5 check sum: 50ce49cbf7e0a40ad8623bf41840a268
     Pseudo is Projector augmented-wave + core cor, Zval = 13.0
     Generated using &quot;atomic&quot; code by A. Dal Corso  v.6.3
     Shape of augmentation charge: PSQ
     Using radial grid of 1205 points,  6 beta functions with: 
                l(1) =   0
                l(2) =   0
                l(3) =   1
                l(4) =   1
                l(5) =   2
                l(6) =   2
     Q(r) pseudized with 0 coefficients 


     PseudoPot. # 3 for Al read from file:
     ../Pseudopotentials/Al.pbe-n-kjpaw_psl.1.0.0.UPF
     MD5 check sum: 502b6b27b9c6270cab5dd1084b96fa6d
     Pseudo is Projector augmented-wave + core cor, Zval =  3.0
     Generated using &quot;atomic&quot; code by A. Dal Corso  v.6.3
     Shape of augmentation charge: PSQ
     Using radial grid of 1135 points,  6 beta functions with: 
                l(1) =   0
                l(2) =   0
                l(3) =   1
                l(4) =   1
                l(5) =   2
                l(6) =   2
     Q(r) pseudized with 0 coefficients 


     atomic species   valence    mass     pseudopotential
        As             5.00    74.92100     As( 1.00)
        Ga            13.00    69.72300     Ga( 1.00)
        Al             3.00    26.98100     Al( 1.00)

     24 Sym. Ops. (no inversion) found



   Cartesian axes

     site n.     atom                  positions (alat units)
         1           As  tau(   1) = (   0.2500000   0.2500000   0.2500000  )
         2           As  tau(   2) = (   0.2500000   0.7500000   0.7500000  )
         3           As  tau(   3) = (   0.7500000   0.2500000   0.7500000  )
         4           As  tau(   4) = (   0.7500000   0.7500000   0.2500000  )
         5           Ga  tau(   5) = (   0.0000000   0.0000000   0.0000000  )
         6           Al  tau(   6) = (   0.0000000   0.5000000   0.5000000  )
         7           Al  tau(   7) = (   0.5000000   0.0000000   0.5000000  )
         8           Al  tau(   8) = (   0.5000000   0.5000000   0.0000000  )

     number of k points=    81  Marzari-Vanderbilt smearing, width (Ry)=  0.0050
                       cart. coord. in units 2pi/alat
        k(    1) = (   0.0000000   0.0000000   0.0000000), wk =   0.0246914
        k(    2) = (   0.0250000   0.0000000   0.0250000), wk =   0.0246914
        k(    3) = (   0.0500000   0.0000000   0.0500000), wk =   0.0246914
        k(    4) = (   0.0750000   0.0000000   0.0750000), wk =   0.0246914
        k(    5) = (   0.1000000   0.0000000   0.1000000), wk =   0.0246914
        k(    6) = (   0.1250000   0.0000000   0.1250000), wk =   0.0246914
        k(    7) = (   0.1500000   0.0000000   0.1500000), wk =   0.0246914
        k(    8) = (   0.1750000   0.0000000   0.1750000), wk =   0.0246914
        k(    9) = (   0.2000000   0.0000000   0.2000000), wk =   0.0246914
        k(   10) = (   0.2250000   0.0000000   0.2250000), wk =   0.0246914
        k(   11) = (   0.2500000   0.0000000   0.2500000), wk =   0.0246914
        k(   12) = (   0.2750000   0.0000000   0.2750000), wk =   0.0246914
        k(   13) = (   0.3000000   0.0000000   0.3000000), wk =   0.0246914
        k(   14) = (   0.3250000   0.0000000   0.3250000), wk =   0.0246914
        k(   15) = (   0.3500000   0.0000000   0.3500000), wk =   0.0246914
        k(   16) = (   0.3750000   0.0000000   0.3750000), wk =   0.0246914
        k(   17) = (   0.4000000   0.0000000   0.4000000), wk =   0.0246914
        k(   18) = (   0.4250000   0.0000000   0.4250000), wk =   0.0246914
        k(   19) = (   0.4500000   0.0000000   0.4500000), wk =   0.0246914
        k(   20) = (   0.4750000   0.0000000   0.4750000), wk =   0.0246914
        k(   21) = (   0.5000000   0.0000000   0.5000000), wk =   0.0246914
        k(   22) = (   0.5000000   0.0125000   0.5125000), wk =   0.0246914
        k(   23) = (   0.5000000   0.0250000   0.5250000), wk =   0.0246914
        k(   24) = (   0.5000000   0.0375000   0.5375000), wk =   0.0246914
        k(   25) = (   0.5000000   0.0500000   0.5500000), wk =   0.0246914
        k(   26) = (   0.5000000   0.0625000   0.5625000), wk =   0.0246914
        k(   27) = (   0.5000000   0.0750000   0.5750000), wk =   0.0246914
        k(   28) = (   0.5000000   0.0875000   0.5875000), wk =   0.0246914
        k(   29) = (   0.5000000   0.1000000   0.6000000), wk =   0.0246914
        k(   30) = (   0.5000000   0.1125000   0.6125000), wk =   0.0246914
        k(   31) = (   0.5000000   0.1250000   0.6250000), wk =   0.0246914
        k(   32) = (   0.5000000   0.1375000   0.6375000), wk =   0.0246914
        k(   33) = (   0.5000000   0.1500000   0.6500000), wk =   0.0246914
        k(   34) = (   0.5000000   0.1625000   0.6625000), wk =   0.0246914
        k(   35) = (   0.5000000   0.1750000   0.6750000), wk =   0.0246914
        k(   36) = (   0.5000000   0.1875000   0.6875000), wk =   0.0246914
        k(   37) = (   0.5000000   0.2000000   0.7000000), wk =   0.0246914
        k(   38) = (   0.5000000   0.2125000   0.7125000), wk =   0.0246914
        k(   39) = (   0.5000000   0.2250000   0.7250000), wk =   0.0246914
        k(   40) = (   0.5000000   0.2375000   0.7375000), wk =   0.0246914
        k(   41) = (   0.5000000   0.2500000   0.7500000), wk =   0.0246914
        k(   42) = (   0.4937500   0.2562500   0.7495000), wk =   0.0246914
        k(   43) = (   0.4875000   0.2625000   0.7490000), wk =   0.0246914
        k(   44) = (   0.4812500   0.2687500   0.7485000), wk =   0.0246914
        k(   45) = (   0.4750000   0.2750000   0.7480000), wk =   0.0246914
        k(   46) = (   0.4687500   0.2812500   0.7475000), wk =   0.0246914
        k(   47) = (   0.4625000   0.2875000   0.7470000), wk =   0.0246914
        k(   48) = (   0.4562500   0.2937500   0.7465000), wk =   0.0246914
        k(   49) = (   0.4500000   0.3000000   0.7460000), wk =   0.0246914
        k(   50) = (   0.4437500   0.3062500   0.7455000), wk =   0.0246914
        k(   51) = (   0.4375000   0.3125000   0.7450000), wk =   0.0246914
        k(   52) = (   0.4312500   0.3187500   0.7445000), wk =   0.0246914
        k(   53) = (   0.4250000   0.3250000   0.7440000), wk =   0.0246914
        k(   54) = (   0.4187500   0.3312500   0.7435000), wk =   0.0246914
        k(   55) = (   0.4125000   0.3375000   0.7430000), wk =   0.0246914
        k(   56) = (   0.4062500   0.3437500   0.7425000), wk =   0.0246914
        k(   57) = (   0.4000000   0.3500000   0.7420000), wk =   0.0246914
        k(   58) = (   0.3937500   0.3562500   0.7415000), wk =   0.0246914
        k(   59) = (   0.3875000   0.3625000   0.7410000), wk =   0.0246914
        k(   60) = (   0.3812500   0.3687500   0.7405000), wk =   0.0246914
        k(   61) = (   0.3750000   0.3750000   0.7400000), wk =   0.0246914
        k(   62) = (   0.3562500   0.3562500   0.7030000), wk =   0.0246914
        k(   63) = (   0.3375000   0.3375000   0.6660000), wk =   0.0246914
        k(   64) = (   0.3187500   0.3187500   0.6290000), wk =   0.0246914
        k(   65) = (   0.3000000   0.3000000   0.5920000), wk =   0.0246914
        k(   66) = (   0.2812500   0.2812500   0.5550000), wk =   0.0246914
        k(   67) = (   0.2625000   0.2625000   0.5180000), wk =   0.0246914
        k(   68) = (   0.2437500   0.2437500   0.4810000), wk =   0.0246914
        k(   69) = (   0.2250000   0.2250000   0.4440000), wk =   0.0246914
        k(   70) = (   0.2062500   0.2062500   0.4070000), wk =   0.0246914
        k(   71) = (   0.1875000   0.1875000   0.3700000), wk =   0.0246914
        k(   72) = (   0.1687500   0.1687500   0.3330000), wk =   0.0246914
        k(   73) = (   0.1500000   0.1500000   0.2960000), wk =   0.0246914
        k(   74) = (   0.1312500   0.1312500   0.2590000), wk =   0.0246914
        k(   75) = (   0.1125000   0.1125000   0.2220000), wk =   0.0246914
        k(   76) = (   0.0937500   0.0937500   0.1850000), wk =   0.0246914
        k(   77) = (   0.0750000   0.0750000   0.1480000), wk =   0.0246914
        k(   78) = (   0.0562500   0.0562500   0.1110000), wk =   0.0246914
        k(   79) = (   0.0375000   0.0375000   0.0740000), wk =   0.0246914
        k(   80) = (   0.0187500   0.0187500   0.0370000), wk =   0.0246914
        k(   81) = (   0.0000000   0.0000000   0.0000000), wk =   0.0246914

     Dense  grid:    43819 G-vectors     FFT dimensions: (  45,  45,  45)

     Estimated max dynamical RAM per process >      81.20 MB

     Estimated total dynamical RAM >     162.40 MB

     Check: negative core charge=   -0.000001

     The potential is recalculated from file :
     ./outputs/gaalas75.save/charge-density

     Starting wfcs are   37 randomized atomic wfcs +   27 random wfcs
     Checking if some PAW data can be deallocated... 

     Band Structure Calculation
     Davidson diagonalization with overlap

     ethr =  2.38E-11,  avg # of iterations = 46.3

     total cpu time spent up to now is      568.1 secs

     End of band structure calculation

          k = 0.0000 0.0000 0.0000 (  5449 PWs)   bands (ev):

    -9.4982  -9.4982  -9.4982  -9.4306  -9.4306  -6.9485  -5.0030  -5.0030
    -5.0030  -1.2505  -0.4838  -0.4838   2.6782   2.6782   2.6782   2.6893
     2.6893   2.6893   4.8642   4.8642   4.8642   5.9790   6.3984   6.3984
     6.3984   6.7554   7.2179   7.2179   8.9441   8.9441   8.9441  13.2299
    14.0478  14.0478  14.7750  14.7750  14.7750  14.9292  14.9292  14.9292
    15.7505  16.0675  16.0675  16.2333  16.2333  16.2333  17.1828  17.1828
    17.1828  17.5458  17.5458  17.5458  17.8023  18.1630  18.1630  18.1630
    18.4438  18.4438  18.4438  18.9110  18.9110  19.4198  23.4539  23.6204

          k = 0.0250 0.0000 0.0250 (  5461 PWs)   bands (ev):

    -9.4982  -9.4982  -9.4982  -9.4307  -9.4306  -6.9445  -5.0084  -5.0074
    -5.0026  -1.2433  -0.4790  -0.4752   2.6558   2.6748   2.6757   2.6820
     2.6874   2.6906   4.7854   4.8518   4.8628   6.0348   6.4126   6.4175
     6.4211   6.7841   7.2331   7.2387   8.9424   8.9481   8.9627  13.2545
    13.9998  14.0342  14.7167  14.7433  14.7434  14.8735  14.8850  14.9000
    15.7194  15.9852  15.9937  16.2379  16.2441  16.2885  17.1095  17.1743
    17.2117  17.5278  17.5566  17.6233  17.8446  18.1163  18.1887  18.2409
    18.4368  18.4876  18.5265  18.9986  19.0299  19.4647  23.3150  23.4097

          k = 0.0500 0.0000 0.0500 (  5473 PWs)   bands (ev):

    -9.4983  -9.4983  -9.4983  -9.4307  -9.4307  -6.9324  -5.0243  -5.0205
    -5.0016  -1.2222  -0.4649  -0.4498   2.5822   2.6632   2.6660   2.6699
     2.6819   2.7004   4.5890   4.8148   4.8589   6.1586   6.4554   6.4724
     6.4898   6.8690   7.2799   7.3036   8.9381   8.9604   9.0191  13.3265
    13.8752  13.9947  14.5338  14.6507  14.6526  14.6908  14.7748  14.8182
    15.6471  15.7881  15.8409  16.2387  16.2778  16.4364  16.9241  17.1732
    17.2458  17.5157  17.6005  17.7182  17.9319  18.1168  18.2103  18.4237
    18.5283  18.6180  18.7401  19.2233  19.3177  19.5951  22.9301  22.9632

          k = 0.0750 0.0000 0.0750 (  5477 PWs)   bands (ev):

    -9.4985  -9.4984  -9.4983  -9.4306  -9.4306  -6.9122  -5.0500  -5.0416
    -5.0001  -1.1886  -0.4414  -0.4087   2.4696   2.6407   2.6484   2.6566
     2.6747   2.7188   4.3328   4.7544   4.8520   6.2869   6.5260   6.5501
     6.6120   7.0007   7.3569   7.4206   8.9336   8.9808   9.1134  13.4394
    13.7031  13.9343  14.2298  14.3853  14.5062  14.5112  14.6310  14.6985
    15.4824  15.6200  15.6895  16.2253  16.3331  16.5793  16.7477  17.1855
    17.2126  17.5868  17.6594  17.6627  18.0877  18.2322  18.2532  18.6095
    18.7820  18.8139  19.0478  19.5273  19.7060  19.8012  22.4524  22.4644

          k = 0.1000 0.0000 0.1000 (  5489 PWs)   bands (ev):

    -9.4987  -9.4984  -9.4984  -9.4306  -9.4306  -6.8842  -5.0843  -5.0699
    -4.9986  -1.1448  -0.4092  -0.3539   2.3313   2.6095   2.6194   2.6476
     2.6685   2.7449   4.0496   4.6708   4.8417   6.3994   6.6230   6.6413
     6.7777   7.1604   7.4621   7.5976   8.9320   9.0094   9.2449  13.5082
    13.5708  13.8391  13.8582  14.0131  14.3141  14.3273  14.4743  14.5555
    15.1999  15.5383  15.5521  16.2035  16.3849  16.4078  16.8460  17.1258
    17.2414  17.6191  17.7175  17.7367  18.2265  18.2959  18.4599  18.7892
    19.0516  19.1114  19.3900  19.8988  20.0610  20.1532  21.9657  21.9706

          k = 0.1250 0.0000 0.1250 (  5489 PWs)   bands (ev):

    -9.4989  -9.4986  -9.4985  -9.4306  -9.4305  -6.8484  -5.1254  -5.1041
    -4.9977  -1.0933  -0.3688  -0.2879   2.1798   2.5711   2.5824   2.6439
     2.6669   2.7785   3.7551   4.5657   4.8281   6.5036   6.7459   6.7463
     6.9620   7.3303   7.5936   7.8382   8.9369   9.0461   9.4105  13.3063
    13.4016  13.4792  13.7582  13.8527  14.1011  14.1117  14.3081  14.3992
    14.8989  15.4161  15.4515  16.1170  16.1846  16.5003  16.8295  17.0193
    17.4111  17.6939  17.7705  17.9251  18.3670  18.3986  18.6761  18.9630
    19.3159  19.4715  19.7162  20.3320  20.3735  20.6006  21.4905  21.5204

          k = 0.1500 0.0000 0.1500 (  5473 PWs)   bands (ev):

    -9.4991  -9.4986  -9.4986  -9.4306  -9.4304  -6.8050  -5.1718  -5.1431
    -4.9981  -1.0371  -0.3213  -0.2139   2.0259   2.5269   2.5390   2.6491
     2.6733   2.8192   3.4582   4.4415   4.8103   6.6041   6.8700   6.8925
     7.1486   7.5027   7.7492   8.1357   8.9515   9.0909   9.6028  12.9338
    13.0516  13.1171  13.6659  13.8305  13.8750  14.0366  14.1529  14.2316
    14.6037  15.2721  15.3469  15.8427  16.1771  16.6042  16.7033  16.9144
    17.5653  17.8225  17.9334  18.1337  18.5208  18.5258  18.8819  19.1194
    19.5935  19.8402  20.0092  20.7030  20.7526  20.9018  21.1036  21.2243

          k = 0.1750 0.0000 0.1750 (  5469 PWs)   bands (ev):

    -9.4993  -9.4988  -9.4987  -9.4305  -9.4303  -6.7543  -5.2220  -5.1855
    -5.0007  -0.9790  -0.2686  -0.1353   1.8784   2.4782   2.4904   2.6661
     2.6912   2.8669   3.1635   4.3003   4.7874   6.7010   7.0151   7.0608
     7.3291   7.6787   7.9256   8.4772   8.9792   9.1438   9.8103  12.4640
    12.5874  12.9328  13.5810  13.6038  13.6260  13.9056  14.0526  14.2250
    14.3860  15.1159  15.2229  15.5705  16.1822  16.5393  16.6619  16.8778
    17.6755  17.8677  18.2588  18.3485  18.6638  18.6972  19.0685  19.2409
    19.8605  20.1731  20.2432  20.6263  20.6366  21.0667  21.3106  21.3165

          k = 0.2000 0.0000 0.2000 (  5465 PWs)   bands (ev):

    -9.4995  -9.4989  -9.4988  -9.4305  -9.4302  -6.6965  -5.2741  -5.2301
    -5.0066  -0.9212  -0.2128  -0.0558   1.7444   2.4269   2.4381   2.6944
     2.7239   2.8787   2.9213   4.1446   4.7590   6.7953   7.1804   7.2489
     7.5002   7.8635   8.1209   8.8419   9.0307   9.2047  10.0174  11.9949
    12.1211  12.7649  13.3619  13.3716  13.5172  13.6826  13.8615  14.0324
    14.5465  14.9450  15.0888  15.3080  16.1950  16.3612  16.5944  17.0020
    17.7722  17.8960  18.5526  18.5602  18.7999  18.9332  19.2229  19.3043
    19.9816  20.2251  20.3038  20.5640  20.6261  21.0931  21.2402  21.3320

          k = 0.2250 0.0000 0.2250 (  5465 PWs)   bands (ev):

    -9.4998  -9.4990  -9.4989  -9.4304  -9.4302  -6.6320  -5.3269  -5.2754
    -5.0168  -0.8654  -0.1565   0.0211   1.6297   2.3745   2.3818   2.5800
     2.7645   2.7744   2.9821   3.9773   4.7249   6.8886   7.3598   7.4553
     7.6612   8.0615   8.3318   9.0467   9.2737   9.2794  10.2063  11.5338
    11.6627  12.6136  13.1182  13.1271  13.4185  13.4710  13.6584  13.8365
    14.7144  14.7551  14.9988  15.0636  16.1761  16.1935  16.5144  17.1997
    17.8565  17.8969  18.7237  18.7575  18.9145  19.2582  19.2853  19.3097
    19.8381  20.0317  20.4918  20.5607  20.8363  21.0369  21.1586  21.2533

          k = 0.2500 0.0000 0.2500 (  5489 PWs)   bands (ev):

    -9.5001  -9.4993  -9.4992  -9.4304  -9.4301  -6.5612  -5.3790  -5.3205
    -5.0326  -0.8126  -0.1024   0.0924   1.5386   2.2793   2.3223   2.3597
     2.8312   2.8443   3.0489   3.8008   4.6839   6.9825   7.5407   7.6772
     7.8205   8.2725   8.5546   9.1224   9.3507   9.6852  10.3600  11.0867
    11.2225  12.4771  12.8709  12.9015  13.1566  13.3570  13.4409  13.7549
    14.5423  14.6555  14.8422  15.1262  15.9859  16.1370  16.4935  17.4397
    17.8618  17.9226  18.7656  18.9128  18.9928  19.1946  19.2145  19.6110
    19.8863  19.8999  20.3990  20.6870  20.9745  21.0579  21.1651  21.2873

          k = 0.2750 0.0000 0.2750 (  5468 PWs)   bands (ev):

    -9.5003  -9.4993  -9.4993  -9.4303  -9.4300  -6.4847  -5.4289  -5.3640
    -5.0546  -0.7628  -0.0527   0.1559   1.4743   2.0335   2.2717   2.2906
     2.9235   2.9347   3.1216   3.6186   4.6368   7.0786   7.7040   7.9135
     7.9969   8.4909   8.7859   9.2058   9.4360  10.0974  10.4632  10.6606
    10.8205  12.3484  12.6439  12.6911  12.8877  13.1717  13.2109  13.8134
    14.3107  14.4986  14.6449  15.3458  15.7974  16.0272  16.5435  17.7123
    17.7982  17.9628  18.6916  18.9310  19.0504  19.0690  19.1249  19.7484
    19.8563  20.2423  20.2925  20.8392  20.8693  21.2467  21.2687  21.4529

          k = 0.3000 0.0000 0.3000 (  5472 PWs)   bands (ev):

    -9.5006  -9.4995  -9.4994  -9.4303  -9.4299  -6.4031  -5.4758  -5.4053
    -5.0841  -0.7156  -0.0086   0.2100   1.4384   1.7826   2.2238   2.2400
     3.0362   3.0442   3.1995   3.4322   4.5826   7.1766   7.8327   8.1606
     8.2031   8.7023   9.0138   9.3027   9.5296  10.2686  10.3703  10.4741
    10.6289  12.2002  12.4622  12.4915  12.6444  12.9508  12.9680  13.9215
    14.0695  14.3642  14.4592  15.5655  15.6110  15.8975  16.6322  17.6834
    17.9609  18.0426  18.5629  18.8349  18.9445  18.9882  19.1633  19.5629
    20.0840  20.2996  20.6628  20.7968  20.9822  21.3215  21.3872  21.4521

          k = 0.3250 0.0000 0.3250 (  5486 PWs)   bands (ev):

    -9.5008  -9.4997  -9.4996  -9.4303  -9.4298  -6.3170  -5.5189  -5.4435
    -5.1219  -0.6699   0.0295   0.2544   1.4297   1.5443   2.1796   2.1943
     3.1662   3.1703   3.2439   3.2824   4.5215   7.2758   7.9277   8.4134
     8.4318   8.8775   9.2044   9.4161   9.6316   9.9501  10.1033  10.5663
    10.8771  12.0099  12.2673  12.3472  12.4906  12.7170  12.7265  13.8264
    13.8952  14.2772  14.4171  15.4332  15.7011  15.8365  16.7456  17.5695
    17.9022  18.3894  18.4640  18.7095  18.8294  18.8976  19.1418  19.3649
    20.3274  20.3450  20.6637  20.9449  20.9988  21.2207  21.5088  21.6247

          k = 0.3500 0.0000 0.3500 (  5484 PWs)   bands (ev):

    -9.5010  -9.4998  -9.4997  -9.4303  -9.4297  -6.2274  -5.5571  -5.4778
    -5.1680  -0.6244   0.0626   0.2895   1.3132   1.4551   2.1398   2.1538
     3.0562   3.3077   3.3093   3.3704   4.4540   7.3751   7.9947   8.6492
     8.6540   8.9738   9.2389   9.5518   9.7424   9.8424   9.9479  10.5751
    11.0929  11.7960  12.0170  12.2593  12.3662  12.4821  12.6342  13.5867
    13.7130  14.0945  14.6606  15.2708  15.5964  16.0086  16.8796  17.4583
    17.7987  18.4167  18.5735  18.7211  18.7477  18.7787  19.0769  19.1887
    20.0877  20.4615  20.5787  21.0126  21.1616  21.6228  21.6392  21.7948

          k = 0.3750 0.0000 0.3750 (  5488 PWs)   bands (ev):

    -9.5012  -9.4999  -9.4999  -9.4302  -9.4297  -6.1355  -5.5898  -5.5077
    -5.2226  -0.5784   0.0927   0.3163   1.1034   1.5002   2.1052   2.1186
     2.8708   3.4429   3.4589   3.4699   4.3802   7.4714   8.0352   8.7104
     8.7702   9.0900   9.1857   9.7049   9.8626   9.9762   9.9881  10.5731
    11.1504  11.5784  11.7658  12.0818  12.1248  12.3600  12.8367  13.3531
    13.4882  13.9089  14.9570  15.1292  15.4761  16.1922  17.0277  17.3684
    17.6817  18.3976  18.4560  18.5533  18.6265  18.9705  19.0190  19.1969
    19.5930  20.4324  20.8171  21.1820  21.3019  21.7355  21.9564  22.0323

          k = 0.4000 0.0000 0.4000 (  5466 PWs)   bands (ev):

    -9.5014  -9.4999  -9.4999  -9.4302  -9.4296  -6.0428  -5.6159  -5.5328
    -5.2852  -0.5317   0.1227   0.3360   0.9097   1.5696   2.0761   2.0891
     2.6895   3.5468   3.6011   3.6070   4.3010   7.5596   8.0485   8.5800
     8.6149   9.3330   9.3691   9.8614   9.9920  10.1345  10.2106  10.5765
    11.0891  11.3648  11.5226  11.8147  11.8518  12.3453  13.1293  13.1557
    13.2969  13.7298  15.0133  15.2407  15.3746  16.3618  17.1455  17.3555
    17.5765  18.3038  18.3597  18.3830  18.5545  18.8373  18.9135  19.1181
    19.6441  20.3032  21.0065  21.3600  21.4781  21.7976  22.1211  22.3831

          k = 0.4250 0.0000 0.4250 (  5470 PWs)   bands (ev):

    -9.5015  -9.5000  -9.5000  -9.4302  -9.4295  -5.9522  -5.6339  -5.5527
    -5.3549  -0.4866   0.1567   0.3497   0.7346   1.6595   2.0531   2.0658
     2.5138   3.6429   3.7291   3.7420   4.2168   7.6278   8.0398   8.4038
     8.4284   9.6115   9.6415  10.0240  10.1308  10.3357  10.4365  10.5962
    10.9689  11.1574  11.2906  11.5264  11.5705  12.3628  12.9218  13.0018
    13.5589  13.6530  14.9236  15.2847  15.4525  16.5256  17.1429  17.4906
    17.5151  18.0609  18.2525  18.3601  18.5116  18.6291  18.7237  18.9380
    19.9833  20.1378  21.1231  21.4858  21.7125  21.8891  22.2695  22.4448

          k = 0.4500 0.0000 0.4500 (  5456 PWs)   bands (ev):

    -9.5016  -9.5000  -9.5000  -9.4301  -9.4295  -5.8692  -5.6400  -5.5671
    -5.4298  -0.4470   0.2000   0.3587   0.5807   1.7673   2.0365   2.0490
     2.3458   3.7384   3.8341   3.8523   4.1290   7.6596   8.0332   8.2289
     8.3122   9.8968   9.9324  10.2002  10.2796  10.5198  10.6322  10.6455
    10.8201  10.9565  11.0713  11.2386  11.2976  12.3901  12.7462  12.7990
    13.4170  14.1058  14.8607  15.2245  15.5002  16.7105  17.1127  17.4289
    17.7080  17.8676  18.1514  18.3319  18.4412  18.4934  18.5517  18.8466
    19.7360  20.5224  21.1853  21.5325  21.9799  22.0466  22.3924  22.5553

          k = 0.4750 0.0000 0.4750 (  5456 PWs)   bands (ev):

    -9.5016  -9.5000  -9.5000  -9.4301  -9.4294  -5.8069  -5.6245  -5.5758
    -5.5063  -0.4191   0.2582   0.3637   0.4511   1.8894   2.0264   2.0381
     2.1884   3.8302   3.9054   3.9252   4.0394   7.6551   8.0541   8.1157
     8.2311  10.1733  10.2242  10.3915  10.4373  10.6195  10.6445  10.7397
    10.7565  10.7569  10.8565  10.9941  11.0627  12.4056  12.6307  12.6508
    13.3176  14.5394  14.8234  15.1857  15.3603  16.9180  17.1013  17.3915
    17.5339  18.0631  18.1014  18.3102  18.3630  18.4275  18.4871  18.6891
    19.5062  20.9302  21.2157  21.4831  22.2201  22.2322  22.4679  22.4821

          k = 0.5000 0.0000 0.5000 (  5472 PWs)   bands (ev):

    -9.5017  -9.5001  -9.5001  -9.4302  -9.4295  -5.7841  -5.5787  -5.5787
    -5.5746  -0.4090   0.3192   0.3653   0.3653   2.0001   2.0230   2.0230
     2.0772   3.8867   3.9507   3.9507   3.9627   7.6469   8.0765   8.0765
     8.1930  10.3964  10.4524  10.4524  10.5572  10.5646  10.5744  10.6731
    10.6740  10.6740  10.8434  10.9302  10.9302  12.4051  12.5948  12.5948
    13.2757  14.8111  14.8111  15.1474  15.2049  17.0229  17.1416  17.3785
    17.3785  18.0501  18.3023  18.3023  18.3530  18.4061  18.4855  18.4855
    19.4224  21.2248  21.2248  21.3295  22.2793  22.3667  22.4777  22.4777

          k = 0.5000 0.0125 0.5125 (  5462 PWs)   bands (ev):

    -9.5017  -9.5001  -9.5000  -9.4301  -9.4295  -5.7868  -5.5987  -5.5756
    -5.5542  -0.4121   0.3006   0.3646   0.3797   1.9791   2.0080   2.0521
     2.1006   3.8778   3.9297   3.9567   3.9809   7.6467   8.0745   8.0785
     8.1983  10.3106  10.4215  10.4489  10.4757  10.5569  10.6140  10.6663
    10.6952  10.7377  10.8471  10.9543  10.9804  12.4109  12.6022  12.6097
    13.2873  14.7848  14.7865  15.1668  15.2255  16.9951  17.1241  17.3770
    17.3818  18.0455  18.2554  18.2869  18.3603  18.4045  18.5114  18.5678
    19.4447  21.1620  21.2105  21.3781  22.2731  22.3293  22.4340  22.4894

          k = 0.5000 0.0250 0.5250 (  5460 PWs)   bands (ev):

    -9.5017  -9.5001  -9.5000  -9.4301  -9.4294  -5.7944  -5.6202  -5.5667
    -5.5317  -0.4213   0.2659   0.3625   0.4019   1.9571   1.9869   2.0980
     2.1463   3.8569   3.9009   3.9687   4.0007   7.6457   8.0696   8.0841
     8.2117  10.1712  10.3160  10.3766  10.4038  10.5418  10.6230  10.7049
    10.7288  10.8122  10.8755  11.0207  11.0912  12.4295  12.6241  12.6524
    13.3138  14.7203  14.7249  15.2094  15.2719  16.9272  17.0789  17.3647
    17.3813  18.0027  18.1998  18.2579  18.3834  18.4458  18.5767  18.7036
    19.5042  21.0605  21.1702  21.4301  22.2261  22.2431  22.3805  22.5038

          k = 0.5000 0.0375 0.5375 (  5468 PWs)   bands (ev):

    -9.5017  -9.5001  -9.5001  -9.4301  -9.4295  -5.8057  -5.6412  -5.5533
    -5.5092  -0.4363   0.2258   0.3592   0.4217   1.9415   1.9714   2.1524
     2.2020   3.8297   3.8690   3.9808   4.0173   7.6440   8.0645   8.0928
     8.2302  10.0213  10.1714  10.2928  10.3334  10.5228  10.5976  10.7577
    10.7670  10.8696  10.9216  11.1156  11.2221  12.4625  12.6601  12.7202
    13.3559  14.6376  14.6444  15.2543  15.3240  16.8440  17.0207  17.3341
    17.3641  17.9045  18.1347  18.2868  18.4319  18.5128  18.6654  18.8537
    19.5928  20.9539  21.1098  21.4345  22.1252  22.1373  22.3227  22.5190

          k = 0.5000 0.0500 0.5500 (  5462 PWs)   bands (ev):

    -9.5016  -9.5001  -9.5001  -9.4301  -9.4295  -5.8195  -5.6614  -5.5367
    -5.4866  -0.4564   0.1824   0.3547   0.4381   1.9324   1.9630   2.2147
     2.2658   3.7989   3.8347   3.9913   4.0307   7.6419   8.0613   8.1034
     8.2511   9.8705  10.0264  10.2039  10.2506  10.5029  10.5691  10.8001
    10.8110  10.9148  10.9686  11.2231  11.3559  12.5117  12.7097  12.8122
    13.4154  14.5480  14.5572  15.2899  15.3684  16.7632  16.9622  17.2883
    17.3292  17.7869  18.0437  18.3664  18.5025  18.5934  18.7684  19.0135
    19.7059  20.8490  21.0364  21.3676  22.0024  22.0303  22.2228  22.5134

          k = 0.5000 0.0625 0.5625 (  5466 PWs)   bands (ev):

    -9.5016  -9.5001  -9.5001  -9.4301  -9.4295  -5.8347  -5.6809  -5.5180
    -5.4642  -0.4810   0.1369   0.3493   0.4509   1.9290   1.9615   2.2841
     2.3364   3.7651   3.7980   3.9990   4.0405   7.6390   8.0611   8.1146
     8.2712   9.7244   9.8865  10.1113  10.1606  10.4831  10.5418  10.8396
    10.8552  10.9499  11.0098  11.3313  11.4841  12.5765  12.7712  12.9238
    13.4879  14.4565  14.4713  15.3091  15.3944  16.6949  16.9087  17.2298
    17.2831  17.6694  17.9414  18.4650  18.5871  18.6805  18.8794  19.1814
    19.8349  20.7483  20.9549  21.2290  21.8513  21.9394  22.0981  22.4611

          k = 0.5000 0.0750 0.5750 (  5462 PWs)   bands (ev):

    -9.5015  -9.5001  -9.5001  -9.4301  -9.4295  -5.8504  -5.6995  -5.4981
    -5.4422  -0.5092   0.0901   0.3433   0.4603   1.9309   1.9663   2.3598
     2.4129   3.7291   3.7596   4.0036   4.0469   7.6350   8.0645   8.1251
     8.2875   9.5871   9.7565  10.0169  10.0666  10.4641  10.5176  10.8795
    10.8976  10.9754  11.0449  11.4349  11.6039  12.6559  12.8437  13.0523
    13.5723  14.3671  14.3950  15.3094  15.3962  16.6438  16.8600  17.1638
    17.2356  17.5619  17.8368  18.5696  18.6774  18.7693  18.9931  19.3552
    19.9773  20.6544  20.8681  21.0460  21.6747  21.8491  21.9786  22.3797

          k = 0.5000 0.0875 0.5875 (  5464 PWs)   bands (ev):

    -9.5015  -9.5001  -9.5001  -9.4301  -9.4295  -5.8662  -5.7171  -5.4776
    -5.4207  -0.5401   0.0429   0.3367   0.4668   1.9375   1.9766   2.4411
     2.4944   3.6912   3.7197   4.0050   4.0496   7.6292   8.0717   8.1336
     8.2969   9.4631   9.6389   9.9220   9.9705  10.4458  10.4971  10.9196
    10.9379  10.9918  11.0737  11.5318  11.7137  12.7478  12.9246  13.1917
    13.6573  14.2849  14.3392  15.2905  15.3718  16.6067  16.8082  17.0930
    17.1955  17.4734  17.7360  18.6719  18.7661  18.8564  19.1032  19.5301
    20.1252  20.5690  20.7668  20.8603  21.4830  21.7469  21.8757  22.2820

          k = 0.5000 0.1000 0.6000 (  5472 PWs)   bands (ev):

    -9.5015  -9.5001  -9.5001  -9.4301  -9.4295  -5.8817  -5.7338  -5.4571
    -5.3999  -0.5729  -0.0040   0.3298   0.4709   1.9482   1.9915   2.5269
     2.5799   3.6520   3.6787   4.0029   4.0486   7.6205   8.0823   8.1394
     8.2959   9.3566   9.5358   9.8276   9.8737  10.4283  10.4810  10.9595
    10.9752  11.0012  11.0965  11.6221  11.8138  12.8498  13.0116  13.3324
    13.7226  14.2182  14.3242  15.2554  15.3244  16.5730  16.7433  17.0202
    17.1696  17.4120  17.6484  18.7646  18.8462  18.9401  19.2021  19.6953
    20.2702  20.4959  20.6086  20.7502  21.2905  21.6373  21.7844  22.1766

          k = 0.5000 0.1125 0.6125 (  5468 PWs)   bands (ev):

    -9.5015  -9.5002  -9.5001  -9.4301  -9.4295  -5.8965  -5.7493  -5.4368
    -5.3800  -0.6065  -0.0496   0.3228   0.4730   1.9624   2.0101   2.6164
     2.6688   3.6120   3.6373   3.9972   4.0440   7.6077   8.0957   8.1422
     8.2827   9.2714   9.4501   9.7349   9.7773  10.4119  10.4697  10.9945
    11.0029  11.0155  11.1151  11.7066  11.9052  12.9594  13.1021  13.4576
    13.7457  14.1840  14.3736  15.2087  15.2614  16.5273  16.6610  16.9493
    17.1563  17.3813  17.5897  18.8368  18.9105  19.0196  19.2809  19.8253
    20.3688  20.4428  20.4720  20.7206  21.1164  21.5289  21.6986  22.0708

          k = 0.5000 0.1250 0.6250 (  5460 PWs)   bands (ev):

    -9.5014  -9.5002  -9.5001  -9.4301  -9.4295  -5.9105  -5.7637  -5.4172
    -5.3610  -0.6402  -0.0935   0.3159   0.4736   1.9796   2.0317   2.7085
     2.7600   3.5718   3.5957   3.9879   4.0353   7.5893   8.1096   8.1418
     8.2589   9.2096   9.3820   9.6447   9.6823  10.3967  10.4629  10.9964
    11.0360  11.0465  11.1317  11.7861  11.9886  13.0735  13.1925  13.5407
    13.7243  14.2078  14.4879  15.1558  15.1900  16.4543  16.5673  16.8830
    17.1400  17.3835  17.5732  18.8727  18.9484  19.0942  19.3283  19.8778
    20.3187  20.3920  20.5156  20.7940  20.9740  21.4274  21.6171  21.9680

          k = 0.5000 0.1375 0.6375 (  5476 PWs)   bands (ev):

    -9.5014  -9.5002  -9.5002  -9.4301  -9.4296  -5.9235  -5.7769  -5.3986
    -5.3433  -0.6731  -0.1350   0.3092   0.4729   1.9987   2.0552   2.8020
     2.8523   3.5317   3.5544   3.9743   4.0223   7.5641   8.1147   8.1385
     8.2353   9.1702   9.3297   9.5575   9.5893  10.3829  10.4598  10.9897
    11.0604  11.0815  11.1483  11.8613  12.0639  13.1867  13.2774  13.5672
    13.6763  14.3045  14.6442  15.1014  15.1157  16.3480  16.4698  16.8229
    17.1040  17.4233  17.5985  18.8582  18.9352  19.1628  19.3413  19.8604
    20.2633  20.3737  20.5933  20.8668  20.9563  21.3372  21.5419  21.8706

          k = 0.5000 0.1500 0.6500 (  5478 PWs)   bands (ev):

    -9.5014  -9.5003  -9.5002  -9.4301  -9.4296  -5.9354  -5.7889  -5.3812
    -5.3269  -0.7045  -0.1735   0.3028   0.4716   2.0192   2.0800   2.8960
     2.9449   3.4928   3.5145   3.9568   4.0053   7.5321   8.0859   8.1432
     8.2319   9.1494   9.2927   9.4745   9.5001  10.3710  10.4606  10.9798
    11.0733  11.1173  11.1681  11.9335  12.1333  13.2863  13.3520  13.5615
    13.6258  14.4583  14.8244  15.0491  15.0515  16.2193  16.3674  16.7707
    17.0554  17.4958  17.6545  18.7850  18.8470  19.2207  19.3374  19.8402
    20.2230  20.3817  20.6229  20.8960  21.1238  21.2652  21.4777  21.7896

          k = 0.5000 0.1625 0.6625 (  5480 PWs)   bands (ev):

    -9.5013  -9.5003  -9.5002  -9.4301  -9.4296  -5.9461  -5.7995  -5.3653
    -5.3121  -0.7337  -0.2086   0.2970   0.4697   2.0403   2.1051   2.9891
     3.0369   3.4556   3.4767   3.9347   3.9840   7.4945   8.0315   8.1528
     8.2499   9.1420   9.2659   9.3958   9.4181  10.3611  10.4645  10.9677
    11.0779  11.1513  11.1904  12.0029  12.1969  13.3299  13.4073  13.5671
    13.6062  14.6427  14.9435  15.0110  15.0666  16.0792  16.2578  16.7264
    17.0054  17.5892  17.7269  18.6445  18.7025  19.2501  19.3396  19.8432
    20.2031  20.3999  20.5891  21.0149  21.2077  21.2942  21.4324  21.7432

          k = 0.5000 0.1750 0.6750 (  5488 PWs)   bands (ev):

    -9.5013  -9.5004  -9.5002  -9.4301  -9.4296  -5.9555  -5.8088  -5.3510
    -5.2989  -0.7603  -0.2398   0.2916   0.4676   2.0611   2.1296   3.0799
     3.1270   3.4209   3.4420   3.9080   3.9583   7.4532   7.9692   8.1651
     8.2784   9.1425   9.2418   9.3193   9.3521  10.3531  10.4706  10.9544
    11.0768  11.1825  11.2126  12.0695  12.2545  13.3077  13.3965  13.6278
    13.6432  14.8352  14.9108  14.9863  15.2565  15.9354  16.1425  16.6912
    16.9612  17.6943  17.8053  18.4455  18.5340  19.2289  19.3605  19.8665
    20.2071  20.4019  20.5670  21.1012  21.2138  21.3687  21.4393  21.7811

          k = 0.5000 0.1875 0.6875 (  5496 PWs)   bands (ev):

    -9.5013  -9.5004  -9.5002  -9.4301  -9.4296  -5.9635  -5.8167  -5.3386
    -5.2874  -0.7836  -0.2669   0.2870   0.4654   2.0808   2.1527   3.1660
     3.2142   3.3896   3.4121   3.8765   3.9285   7.4115   7.9078   8.1798
     8.3118   9.1463   9.2079   9.2464   9.3133  10.3471  10.4787  10.9408
    11.0725  11.2102  11.2333  12.1333  12.3056  13.2584  13.3449  13.6900
    13.7325  14.8662  14.9594  15.0597  15.4557  15.7968  16.0279  16.6671
    16.9292  17.8009  17.8791  18.2210  18.3529  19.1721  19.3823  19.9041
    20.2256  20.3800  20.5698  21.1230  21.2382  21.3684  21.4982  21.9248

          k = 0.5000 0.2000 0.7000 (  5494 PWs)   bands (ev):

    -9.5012  -9.5004  -9.5002  -9.4300  -9.4296  -5.9702  -5.8232  -5.3282
    -5.2779  -0.8032  -0.2894   0.2831   0.4635   2.0985   2.1734   3.2429
     3.2971   3.3629   3.3911   3.8404   3.8952   7.3723   7.8525   8.1961
     8.3470   9.1453   9.1613   9.1880   9.3000  10.3429  10.4880  10.9277
    11.0671  11.2340  11.2512  12.1933  12.3497  13.2040  13.2878  13.7406
    13.8313  14.8470  14.9714  15.2484  15.5730  15.7229  15.9328  16.6587
    16.9136  17.8607  17.9415  18.0042  18.1983  19.0958  19.3940  19.9490
    20.2463  20.3592  20.5746  21.1415  21.2256  21.3686  21.5619  22.1187

          k = 0.5000 0.2125 0.7125 (  5498 PWs)   bands (ev):

    -9.5012  -9.5005  -9.5002  -9.4300  -9.4297  -5.9754  -5.8283  -5.3200
    -5.2704  -0.8188  -0.3072   0.2800   0.4618   2.1133   2.1907   3.2953
     3.3397   3.3753   3.3929   3.8000   3.8595   7.3386   7.8065   8.2122
     8.3807   9.1062   9.1209   9.1709   9.2986  10.3399  10.4966  10.9160
    11.0613  11.2531  11.2655  12.2475  12.3848  13.1539  13.2350  13.7806
    13.9174  14.8493  14.9944  15.4235  15.4801  15.7356  15.9586  16.6749
    16.9164  17.7214  17.8120  18.0503  18.1575  19.0097  19.3940  19.9942
    20.2491  20.3625  20.5706  21.1363  21.2296  21.3768  21.6101  22.3049

          k = 0.5000 0.2250 0.7250 (  5506 PWs)   bands (ev):

    -9.5012  -9.5005  -9.5003  -9.4300  -9.4297  -5.9791  -5.8320  -5.3141
    -5.2649  -0.8302  -0.3200   0.2777   0.4605   2.1245   2.2038   3.3072
     3.3240   3.4283   3.4450   3.7572   3.8245   7.3126   7.7721   8.2257
     8.4097   9.0604   9.0880   9.1726   9.3006  10.3383  10.5042  10.9067
    11.0561  11.2671  11.2760  12.2933  12.4089  13.1140  13.1922  13.8082
    13.9824  14.8761  15.0241  15.3634  15.5590  15.6709  16.0824  16.7309
    16.9421  17.5047  17.6346  18.1359  18.1976  18.9249  19.3883  20.0342
    20.2370  20.3820  20.5616  21.0996  21.2681  21.3883  21.6479  22.2101

          k = 0.5000 0.2375 0.7375 (  5510 PWs)   bands (ev):

    -9.5012  -9.5005  -9.5003  -9.4300  -9.4297  -5.9813  -5.8342  -5.3105
    -5.2617  -0.8371  -0.3278   0.2764   0.4597   2.1315   2.2119   3.3041
     3.3141   3.4683   3.5000   3.7178   3.7960   7.2964   7.7509   8.2349
     8.4295   9.0296   9.0664   9.1749   9.3029  10.3373  10.5090  10.9007
    11.0529  11.2759  11.2822  12.3253  12.4224  13.0886  13.1638  13.8244
    14.0226  14.9221  15.0418  15.2752  15.5694  15.6896  16.1700  16.8372
    16.9797  17.3064  17.4774  18.1844  18.2545  18.8569  19.3805  20.0620
    20.2258  20.3991  20.5549  21.0682  21.3036  21.3955  21.6792  22.1333

          k = 0.5000 0.2500 0.7500 (  5512 PWs)   bands (ev):

    -9.5012  -9.5005  -9.5003  -9.4300  -9.4297  -5.9821  -5.8349  -5.3093
    -5.2605  -0.8394  -0.3304   0.2759   0.4594   2.1339   2.2147   3.3022
     3.3107   3.4846   3.5240   3.6990   3.7846   7.2908   7.7438   8.2380
     8.4369   9.0187   9.0589   9.1758   9.3039  10.3370  10.5107  10.8985
    11.0519  11.2790  11.2842  12.3373  12.4263  13.0799  13.1535  13.8296
    14.0362  14.9550  15.0363  15.2435  15.5468  15.7188  16.1982  16.9491
    16.9670  17.2052  17.4071  18.1990  18.2811  18.8293  19.3776  20.0723
    20.2215  20.4047  20.5528  21.0561  21.3177  21.3981  21.6926  22.1027

          k = 0.4937 0.2562 0.7495 (  5512 PWs)   bands (ev):

    -9.5012  -9.5005  -9.5003  -9.4300  -9.4297  -5.9769  -5.8272  -5.3155
    -5.2661  -0.8437  -0.3357   0.2521   0.4379   2.1571   2.2382   3.3185
     3.3278   3.4717   3.5490   3.7030   3.7929   7.2727   7.7325   8.2172
     8.4137   9.0184   9.0611   9.1788   9.3044  10.3135  10.4936  10.9414
    11.0906  11.2405  11.2592  12.3533  12.4272  13.1235  13.1966  13.8314
    14.0528  14.9318  15.0418  15.2403  15.5541  15.7078  16.1670  16.9053
    16.9480  17.2066  17.3984  18.2029  18.2816  18.7973  19.3507  20.0225
    20.1926  20.3834  20.5394  21.0233  21.3640  21.3705  21.7261  22.1139

          k = 0.4875 0.2625 0.7490 (  5506 PWs)   bands (ev):

    -9.5012  -9.5006  -9.5003  -9.4300  -9.4297  -5.9741  -5.8168  -5.3219
    -5.2719  -0.8478  -0.3404   0.2249   0.4208   2.1803   2.2617   3.3326
     3.3451   3.4475   3.5828   3.7047   3.8075   7.2529   7.7209   8.1916
     8.3843   9.0235   9.0724   9.1832   9.3069  10.2842  10.4831  10.9796
    11.1268  11.1958  11.2464  12.3592  12.4230  13.1759  13.2505  13.8209
    14.0802  14.8928  15.0380  15.2550  15.5692  15.7020  16.1341  16.8525
    16.9285  17.2196  17.3998  18.2002  18.2742  18.7543  19.3374  19.9625
    20.1465  20.3696  20.5383  20.9955  21.3491  21.4084  21.7679  22.1207

          k = 0.4812 0.2687 0.7485 (  5503 PWs)   bands (ev):

    -9.5012  -9.5006  -9.5003  -9.4300  -9.4297  -5.9732  -5.8042  -5.3284
    -5.2777  -0.8516  -0.3445   0.1952   0.4072   2.2034   2.2852   3.3410
     3.3625   3.4260   3.6139   3.7052   3.8277   7.2313   7.7089   8.1618
     8.3510   9.0311   9.0925   9.1890   9.3106  10.2510  10.4773  11.0129
    11.1434  11.1508  11.2568  12.3530  12.4180  13.2326  13.3150  13.8039
    14.1117  14.8425  15.0298  15.2791  15.5806  15.7118  16.0997  16.7976
    16.9034  17.2407  17.4112  18.1871  18.2612  18.7041  19.3362  19.8920
    20.0843  20.3676  20.5445  20.9737  21.3324  21.4492  21.8151  22.1243

          k = 0.4750 0.2750 0.7480 (  5502 PWs)   bands (ev):

    -9.5013  -9.5006  -9.5004  -9.4300  -9.4297  -5.9737  -5.7899  -5.3351
    -5.2837  -0.8551  -0.3480   0.1640   0.3963   2.2261   2.3089   3.3360
     3.3797   3.4168   3.6400   3.7061   3.8525   7.2080   7.6968   8.1290
     8.3156   9.0399   9.1201   9.1962   9.3158  10.2155  10.4745  11.0395
    11.1051  11.1380  11.2958  12.3345  12.4154  13.2907  13.3883  13.7843
    14.1445  14.7855  15.0200  15.3068  15.5773  15.7460  16.0657  16.7421
    16.8743  17.2664  17.4316  18.1566  18.2488  18.6515  19.3431  19.8111
    20.0123  20.3758  20.5555  20.9578  21.3200  21.4856  21.8651  22.1277

          k = 0.4687 0.2812 0.7475 (  5498 PWs)   bands (ev):

    -9.5013  -9.5006  -9.5004  -9.4300  -9.4297  -5.9751  -5.7743  -5.3420
    -5.2896  -0.8583  -0.3508   0.1320   0.3873   2.2482   2.3330   3.3153
     3.3965   3.4227   3.6592   3.7090   3.8814   7.1831   7.6849   8.0941
     8.2796   9.0498   9.1530   9.2048   9.3225  10.1789  10.4738  11.0492
    11.0614  11.1336  11.3481  12.3076  12.4143  13.3493  13.4667  13.7660
    14.1768  14.7253  15.0094  15.3359  15.5621  15.7995  16.0340  16.6870
    16.8429  17.2938  17.4605  18.1060  18.2403  18.6008  19.3546  19.7222
    19.9356  20.3917  20.5697  20.9475  21.3127  21.5173  21.9140  22.1349

          k = 0.4625 0.2875 0.7470 (  5499 PWs)   bands (ev):

    -9.5013  -9.5006  -9.5004  -9.4300  -9.4297  -5.9772  -5.7580  -5.3492
    -5.2955  -0.8612  -0.3529   0.0999   0.3797   2.2693   2.3577   3.2863
     3.4128   3.4364   3.6702   3.7159   3.9133   7.1568   7.6731   8.0581
     8.2439   9.0606   9.1885   9.2150   9.3307  10.1418  10.4743  11.0129
    11.0398  11.1482  11.4052  12.2753  12.4133  13.4076  13.5441  13.7531
    14.2073  14.6641  14.9984  15.3650  15.5417  15.8602  16.0082  16.6327
    16.8113  17.3213  17.4953  18.0393  18.2342  18.5533  19.3637  19.6300
    19.8567  20.4126  20.5863  20.9420  21.3077  21.5437  21.9558  22.1511

          k = 0.4562 0.2937 0.7465 (  5498 PWs)   bands (ev):

    -9.5013  -9.5006  -9.5004  -9.4300  -9.4296  -5.9796  -5.7410  -5.3567
    -5.3012  -0.8638  -0.3543   0.0681   0.3731   2.2893   2.3833   3.2540
     3.4286   3.4531   3.6739   3.7263   3.9473   7.1293   7.6616   8.0224
     8.2091   9.0722   9.2172   9.2346   9.3409  10.1046  10.4760  10.9680
    11.0131  11.1749  11.4635  12.2398  12.4119  13.4642  13.6096  13.7563
    14.2354  14.6040  14.9874  15.3917  15.5211  15.9086  16.0050  16.5800
    16.7811  17.3484  17.5332  17.9634  18.2291  18.5095  19.3572  19.5489
    19.7777  20.4371  20.6048  20.9410  21.3048  21.5647  21.9855  22.1811

          k = 0.4500 0.3000 0.7460 (  5503 PWs)   bands (ev):

    -9.5013  -9.5007  -9.5005  -9.4299  -9.4297  -5.9822  -5.7238  -5.3647
    -5.3068  -0.8661  -0.3550   0.0369   0.3672   2.3078   2.4099   3.2201
     3.4441   3.4706   3.6736   3.7376   3.9822   7.1010   7.6500   7.9878
     8.1754   9.0844   9.2292   9.2715   9.3534  10.0676  10.4786  10.9235
    10.9816  11.2058  11.5217  12.2023  12.4099  13.5152  13.6475  13.7930
    14.2596  14.5465  14.9765  15.4097  15.5080  15.9147  16.0497  16.5289
    16.7539  17.3743  17.5671  17.8875  18.2238  18.4684  19.3071  19.5064
    19.6982  20.4637  20.6242  20.9443  21.3025  21.5801  22.0027  22.2235

          k = 0.4437 0.3062 0.7455 (  5500 PWs)   bands (ev):

    -9.5013  -9.5007  -9.5005  -9.4299  -9.4296  -5.9848  -5.7063  -5.3731
    -5.3120  -0.8681  -0.3548   0.0067   0.3619   2.3249   2.4377   3.1855
     3.4592   3.4884   3.6714   3.7485   4.0172   7.0724   7.6385   7.9557
     8.1431   9.0972   9.2379   9.3106   9.3693  10.0308  10.4821  10.8796
    10.9485  11.2389  11.5791  12.1639  12.4078  13.5521  13.6711  13.8575
    14.2786  14.4953  14.9661  15.4079  15.5144  15.9029  16.1166  16.4800
    16.7330  17.3983  17.5821  17.8303  18.2181  18.4292  19.2146  19.5006
    19.6224  20.4916  20.6442  20.9524  21.3012  21.5908  22.0122  22.2713

          k = 0.4375 0.3125 0.7450 (  5501 PWs)   bands (ev):

    -9.5013  -9.5007  -9.5005  -9.4299  -9.4297  -5.9873  -5.6889  -5.3819
    -5.3169  -0.8700  -0.3539  -0.0224   0.3571   2.3406   2.4666   3.1504
     3.4739   3.5057   3.6681   3.7586   4.0514   7.0438   7.6267   7.9268
     8.1121   9.1101   9.2449   9.3480   9.3895   9.9944  10.4863  10.8367
    10.9148  11.2732  11.6347  12.1249  12.4055  13.5661  13.7069  13.9292
    14.2872  14.4556  14.9563  15.3878  15.5387  15.8915  16.1819  16.4338
    16.7213  17.4165  17.5582  17.8166  18.2111  18.3918  19.1048  19.4906
    19.5654  20.5202  20.6636  20.9641  21.2980  21.5979  22.0179  22.3140

          k = 0.4312 0.3187 0.7445 (  5499 PWs)   bands (ev):

    -9.5013  -9.5007  -9.5005  -9.4299  -9.4296  -5.9897  -5.6716  -5.3913
    -5.3215  -0.8715  -0.3522  -0.0503   0.3527   2.3547   2.4965   3.1152
     3.4882   3.5223   3.6640   3.7676   4.0842   7.0157   7.6145   7.9018
     8.0825   9.1232   9.2504   9.3810   9.4159   9.9585  10.4913  10.7953
    10.8813  11.3085  11.6877  12.0860  12.4032  13.5642  13.7553  13.9990
    14.2784  14.4355  14.9472  15.3598  15.5712  15.8864  16.2350  16.3926
    16.7236  17.4112  17.5185  17.8434  18.2025  18.3565  18.9898  19.4334
    19.5602  20.5491  20.6817  20.9804  21.2921  21.6028  22.0219  22.3434

          k = 0.4250 0.3250 0.7440 (  5499 PWs)   bands (ev):

    -9.5013  -9.5007  -9.5006  -9.4299  -9.4296  -5.9918  -5.6545  -5.4010
    -5.3256  -0.8729  -0.3496  -0.0768   0.3487   2.3674   2.5275   3.0800
     3.5020   3.5381   3.6594   3.7756   4.1151   6.9887   7.6019   7.8811
     8.0544   9.1360   9.2542   9.4091   9.4479   9.9230  10.4968  10.7557
    10.8484  11.3445  11.7374  12.0478  12.4008  13.5567  13.8079  14.0617
    14.2535  14.4354  14.9389  15.3288  15.6070  15.8888  16.2644  16.3611
    16.7417  17.3558  17.5140  17.8875  18.1911  18.3238  18.8739  19.3575
    19.5746  20.5780  20.6973  21.0002  21.2823  21.6068  22.0245  22.3555

          k = 0.4187 0.3312 0.7435 (  5497 PWs)   bands (ev):

    -9.5013  -9.5007  -9.5006  -9.4299  -9.4296  -5.9938  -5.6377  -5.4112
    -5.3293  -0.8742  -0.3464  -0.1018   0.3449   2.3788   2.5593   3.0448
     3.5153   3.5526   3.6544   3.7828   4.1435   6.9631   7.5891   7.8651
     8.0280   9.1486   9.2565   9.4352   9.4818   9.8882  10.5030  10.7187
    10.8163  11.3809  11.7826  12.0110  12.3986  13.5484  13.8600  14.1120
    14.2255  14.4469  14.9315  15.2970  15.6444  15.8997  16.2596  16.3480
    16.7737  17.2811  17.5301  17.9364  18.1765  18.2950  18.7613  19.2791
    19.5920  20.6065  20.7105  21.0228  21.2685  21.6115  22.0254  22.3553

          k = 0.4125 0.3375 0.7430 (  5493 PWs)   bands (ev):

    -9.5013  -9.5007  -9.5006  -9.4299  -9.4296  -5.9954  -5.6214  -5.4217
    -5.3325  -0.8753  -0.3424  -0.1250   0.3415   2.3890   2.5919   3.0098
     3.5280   3.5658   3.6490   3.7892   4.1691   6.9396   7.5765   7.8534
     8.0033   9.1607   9.2575   9.4612   9.5145   9.8542  10.5093  10.6851
    10.7853  11.4176  11.8218  11.9771  12.3966  13.5411  13.9085  14.1344
    14.2165  14.4633  14.9250  15.2659  15.6824  15.9190  16.2324  16.3448
    16.8058  17.2185  17.5496  17.9821  18.1603  18.2701  18.6551  19.2017
    19.6088  20.6342  20.7214  21.0463  21.2511  21.6173  22.0245  22.3502

          k = 0.4062 0.3437 0.7425 (  5494 PWs)   bands (ev):

    -9.5013  -9.5007  -9.5006  -9.4299  -9.4296  -5.9968  -5.6058  -5.4323
    -5.3353  -0.8763  -0.3379  -0.1462   0.3383   2.3979   2.6252   2.9750
     3.5399   3.5773   3.6432   3.7949   4.1913   6.9184   7.5643   7.8458
     7.9804   9.1722   9.2572   9.4876   9.5442   9.8209  10.5152  10.6562
    10.7555  11.4539  11.8507  11.9496  12.3949  13.5352  13.9499  14.1237
    14.2368  14.4804  14.9195  15.2367  15.7206  15.9455  16.2000  16.3404
    16.8143  17.1922  17.5673  18.0137  18.1496  18.2474  18.5603  19.1264
    19.6237  20.6595  20.7307  21.0681  21.2316  21.6240  22.0216  22.3443

          k = 0.4000 0.3500 0.7420 (  5493 PWs)   bands (ev):

    -9.5013  -9.5007  -9.5006  -9.4299  -9.4296  -5.9978  -5.5912  -5.4428
    -5.3376  -0.8772  -0.3331  -0.1652   0.3353   2.4056   2.6591   2.9406
     3.5511   3.5873   3.6372   3.7998   4.2100   6.9000   7.5533   7.8416
     7.9597   9.1827   9.2560   9.5143   9.5697   9.7888  10.5195  10.6337
    10.7275  11.4895  11.8590  11.9397  12.3936  13.5318  13.9792  14.1098
    14.2620  14.4968  14.9149  15.2106  15.7587  15.9754  16.1703  16.3345
    16.7841  17.2157  17.5800  18.0167  18.1552  18.2256  18.4836  19.0554
    19.6365  20.6816  20.7393  21.0855  21.2134  21.6313  22.0174  22.3407

          k = 0.3937 0.3562 0.7415 (  5493 PWs)   bands (ev):

    -9.5013  -9.5007  -9.5006  -9.4299  -9.4296  -5.9985  -5.5780  -5.4527
    -5.3396  -0.8780  -0.3284  -0.1815   0.3326   2.4123   2.6934   2.9067
     3.5611   3.5956   3.6312   3.8042   4.2246   6.8848   7.5440   7.8402
     7.9415   9.1920   9.2541   9.5408   9.5897   9.7584  10.5209  10.6199
    10.7013  11.5230  11.8449  11.9495  12.3929  13.5304  13.9911  14.1087
    14.2819  14.5109  14.9114  15.1892  15.7956  16.0018  16.1493  16.3291
    16.7283  17.2748  17.5837  17.9941  18.1608  18.2145  18.4316  18.9910
    19.6470  20.6981  20.7482  21.0949  21.2002  21.6383  22.0128  22.3397

          k = 0.3875 0.3625 0.7410 (  5490 PWs)   bands (ev):

    -9.5013  -9.5007  -9.5006  -9.4299  -9.4296  -5.9989  -5.5670  -5.4613
    -5.3410  -0.8788  -0.3244  -0.1944   0.3301   2.4179   2.7277   2.8737
     3.5696   3.6024   3.6254   3.8078   4.2352   6.8731   7.5366   7.8406
     7.9268   9.1996   9.2520   9.5662   9.6032   9.7313  10.5188  10.6156
    10.6775  11.5526  11.8249  11.9640  12.3925  13.5311  13.9893  14.1186
    14.2955  14.5220  14.9084  15.1741  15.8296  16.0144  16.1448  16.3264
    16.6685  17.3490  17.5732  17.9623  18.1422  18.2264  18.4043  18.9379
    19.6545  20.7084  20.7562  21.0956  21.1947  21.6448  22.0091  22.3413

          k = 0.3812 0.3687 0.7405 (  5488 PWs)   bands (ev):

    -9.5013  -9.5007  -9.5007  -9.4299  -9.4296  -5.9989  -5.5593  -5.4674
    -5.3421  -0.8795  -0.3217  -0.2031   0.3279   2.4223   2.7606   2.8429
     3.5756   3.6079   3.6202   3.8109   4.2414   6.8651   7.5317   7.8415
     7.9164   9.2048   9.2503   9.5883   9.6081   9.7104  10.5149  10.6185
    10.6573  11.5749  11.8099  11.9753  12.3925  13.5334  13.9839  14.1293
    14.3030  14.5291  14.9060  15.1662  15.8562  16.0124  16.1530  16.3267
    16.6215  17.4243  17.5426  17.9346  18.1213  18.2386  18.3937  18.9003
    19.6590  20.7131  20.7608  21.0919  21.1937  21.6496  22.0070  22.3447

          k = 0.3750 0.3750 0.7400 (  5487 PWs)   bands (ev):

    -9.5013  -9.5007  -9.5006  -9.4299  -9.4296  -5.9986  -5.5565  -5.4696
    -5.3428  -0.8802  -0.3213  -0.2070   0.3259   2.4257   2.7814   2.8251
     3.5781   3.6113   3.6175   3.8132   4.2432   6.8608   7.5292   7.8414
     7.9116   9.2069   9.2497   9.6014   9.6037   9.7017  10.5116  10.6212
    10.6462  11.5855  11.8063  11.9812  12.3929  13.5369  13.9815  14.1344
    14.3053  14.5314  14.9038  15.1665  15.8677  16.0111  16.1574  16.3272
    16.6031  17.4879  17.4923  17.9209  18.1118  18.2417  18.3899  18.8831
    19.6603  20.7134  20.7589  21.0897  21.1926  21.6524  22.0072  22.3484

          k = 0.3562 0.3562 0.7030 (  5485 PWs)   bands (ev):

    -9.5013  -9.5007  -9.5007  -9.4298  -9.4297  -6.0151  -5.5308  -5.4400
    -5.3683  -0.9079  -0.3472  -0.2757   0.3181   2.5689   2.7898   2.8378
     3.5630   3.6058   3.6060   4.0387   4.2212   6.6962   7.4378   7.7782
     7.7980   9.3375   9.3472   9.5156   9.5906   9.6900  10.4587  10.5830
    10.6108  11.6642  11.8769  12.0788  12.1818  13.7661  13.9259  14.2558
    14.3663  14.5008  14.6037  15.6707  16.0980  16.2994  16.3002  16.5786
    16.6621  17.1612  17.3017  17.5554  17.7315  17.9380  18.3369  18.3606
    19.8894  20.4797  20.9375  21.1416  21.1873  21.7576  22.1793  22.6482

          k = 0.3375 0.3375 0.6660 (  5492 PWs)   bands (ev):

    -9.5012  -9.5008  -9.5008  -9.4297  -9.4297  -6.0216  -5.5143  -5.4090
    -5.4050  -0.9159  -0.3318  -0.3267   0.3163   2.6805   2.7764   2.7856
     3.5616   3.6064   3.6069   4.1680   4.1756   6.6275   7.3995   7.7544
     7.7547   9.4026   9.4348   9.4420   9.6331   9.6420  10.4303  10.5763
    10.5794  11.7275  11.9655  11.9789  12.1367  13.9488  14.0019  14.0329
    14.4041  14.4066  14.6364  16.0485  16.1766  16.3303  16.3524  16.6517
    16.6600  17.2932  17.3320  17.3430  17.3616  17.8835  17.9131  18.3863
    20.1699  20.2042  21.1136  21.1250  21.1253  21.7492  22.4437  22.4784

          k = 0.3187 0.3187 0.6290 (  5493 PWs)   bands (ev):

    -9.5013  -9.5008  -9.5007  -9.4298  -9.4297  -6.0179  -5.5403  -5.4178
    -5.3770  -0.9109  -0.3591  -0.2686   0.3208   2.6120   2.6905   2.9082
     3.5549   3.5914   3.6122   4.1083   4.1688   6.6833   7.4299   7.7677
     7.7967   9.3624   9.3942   9.4486   9.5566   9.7235  10.4585  10.5726
    10.6373  11.6254  11.9736  12.0733  12.1007  13.7433  14.0842  14.1996
    14.3447  14.4192  14.6004  15.8311  16.0265  16.2021  16.4507  16.6721
    16.8492  17.0636  17.2300  17.3938  17.5269  18.0794  18.2867  18.3742
    19.9411  20.4041  21.0407  21.1026  21.1650  21.7847  22.2077  22.5867

          k = 0.3000 0.3000 0.5920 (  5506 PWs)   bands (ev):

    -9.5013  -9.5008  -9.5006  -9.4299  -9.4297  -6.0045  -5.6156  -5.3967
    -5.3448  -0.8978  -0.3729  -0.1559   0.3317   2.4920   2.5711   3.0725
     3.5208   3.5468   3.6305   4.0223   4.0525   6.8430   7.5135   7.8311
     7.9238   9.2876   9.3057   9.3640   9.4529   9.8576  10.4793  10.6731
    10.7697  11.4329  11.8797  12.1475  12.1950  13.6178  14.0944  14.0986
    14.3038  14.4936  14.5810  15.6005  15.8604  15.9467  16.3558  16.6750
    16.7158  17.2258  17.2736  17.6387  17.6720  18.3333  18.6909  18.8880
    19.6971  20.4880  20.9441  20.9549  21.2272  21.8584  21.9576  22.4687

          k = 0.2812 0.2812 0.5550 (  5503 PWs)   bands (ev):

    -9.5013  -9.5007  -9.5005  -9.4299  -9.4297  -5.9840  -5.7101  -5.3656
    -5.3126  -0.8792  -0.3691   0.0009   0.3501   2.3584   2.4395   3.2396
     3.4567   3.4768   3.6634   3.8593   3.9233   7.0448   7.6097   7.9692
     8.1208   9.1457   9.2183   9.2444   9.3606  10.0358  10.4667  10.8773
    10.9460  11.2475  11.5912  12.2969  12.3162  13.5854  13.7315  13.7861
    14.3073  14.5829  14.8267  15.5442  15.5512  15.9419  16.0049  16.7438
    16.7497  17.1964  17.3290  17.9823  18.1700  18.2962  19.2753  19.5125
    19.5205  20.4426  20.6903  20.8961  21.2724  21.7263  21.9791  22.2769

          k = 0.2625 0.2625 0.5180 (  5506 PWs)   bands (ev):

    -9.5013  -9.5006  -9.5004  -9.4300  -9.4297  -5.9681  -5.8010  -5.3320
    -5.2811  -0.8562  -0.3499   0.1812   0.3888   2.2221   2.3037   3.3531
     3.3725   3.4412   3.6299   3.7017   3.8213   7.2162   7.6972   8.1520
     8.3404   9.0293   9.0802   9.1902   9.3103  10.2392  10.4608  11.0436
    11.1199  11.1371  11.2764  12.3855  12.4217  13.2581  13.3291  13.8155
    14.1173  14.8561  15.0294  15.2645  15.5694  15.7131  16.0859  16.8564
    16.8635  17.1905  17.3646  18.1986  18.2808  18.6670  19.3064  19.8691
    20.0572  20.3633  20.5275  20.9316  21.3095  21.4930  21.8566  22.1085

          k = 0.2437 0.2437 0.4810 (  5502 PWs)   bands (ev):

    -9.5011  -9.5004  -9.5002  -9.4301  -9.4297  -6.0058  -5.8339  -5.2979
    -5.2504  -0.8308  -0.3188   0.2985   0.5250   2.0918   2.1714   3.2670
     3.2791   3.3895   3.5971   3.6685   3.7969   7.3138   7.7580   8.2472
     8.4395   9.0541   9.1008   9.1775   9.3146  10.3441  10.5816  10.7964
    11.0027  11.3095  11.3605  12.2611  12.3784  13.0600  13.1282  13.7512
    14.0810  14.9289  14.9670  15.3352  15.5904  15.7484  16.2524  17.0069
    17.0247  17.2192  17.4365  18.1663  18.2615  18.8172  19.4856  20.1188
    20.2296  20.4239  20.6432  21.1316  21.2399  21.4828  21.6776  22.0452

          k = 0.2250 0.2250 0.4440 (  5493 PWs)   bands (ev):

    -9.5010  -9.5002  -9.5000  -9.4301  -9.4298  -6.1046  -5.7979  -5.2641
    -5.2207  -0.8067  -0.2810   0.3250   0.7761   1.9763   2.0506   3.1236
     3.1850   3.2048   3.5567   3.7617   3.8599   7.3436   7.7561   8.1665
     8.3242   9.1381   9.3211   9.3696   9.3905  10.3167  10.5196  10.8487
    10.8875  11.2620  11.4699  12.0360  12.2423  13.1351  13.1972  13.4715
    14.2699  14.6894  14.8431  15.6926  15.7793  15.8684  16.3788  17.2012
    17.2254  17.2885  17.5687  17.9043  18.2366  18.6897  19.7051  20.1708
    20.1851  20.4909  20.9177  21.1072  21.2343  21.6435  21.8936  21.9682

          k = 0.2062 0.2062 0.4070 (  5488 PWs)   bands (ev):

    -9.5008  -9.5000  -9.4999  -9.4302  -9.4298  -6.2175  -5.7376  -5.2310
    -5.1922  -0.7891  -0.2432   0.3199   1.0723   1.8857   1.9509   2.9286
     3.0958   3.0995   3.4380   3.9230   3.9407   7.3196   7.7009   7.9984
     8.1269   9.1033   9.3747   9.6834   9.7318  10.2555  10.4445  10.7920
    10.9652  11.0468  11.3051  12.1496  12.3082  13.0535  13.3738  13.4558
    14.4137  14.4762  14.7926  15.8819  16.0924  16.1019  16.4522  17.3322
    17.3469  17.4866  17.5873  17.7927  18.2591  18.5278  19.5675  20.0929
    20.1239  20.4851  20.9067  21.1759  21.4306  21.6736  22.0149  22.0208

          k = 0.1875 0.1875 0.3700 (  5490 PWs)   bands (ev):

    -9.5007  -9.4998  -9.4997  -9.4302  -9.4299  -6.3304  -5.6655  -5.1990
    -5.1648  -0.7837  -0.2132   0.2913   1.3929   1.8313   1.8823   2.7579
     3.0140   3.0147   3.3213   4.0325   4.0775   7.2455   7.6266   7.8141
     7.9130   9.0341   9.1773   9.9619  10.0058  10.1688  10.5334  10.6801
    10.8230  10.8249  11.5716  12.4176  12.4576  12.8692  13.5852  13.6818
    14.1894  14.6689  14.7736  15.9454  16.3578  16.4173  16.5610  17.0615
    17.4091  17.4468  17.9532  18.0922  18.3433  18.3771  19.2456  19.9727
    20.0231  20.3101  20.6278  21.1473  21.5881  21.8286  22.0408  22.1900

          k = 0.1687 0.1687 0.3330 (  5477 PWs)   bands (ev):

    -9.5004  -9.4996  -9.4994  -9.4303  -9.4300  -6.4385  -5.5855  -5.1680
    -5.1388  -0.7956  -0.1985   0.2377   1.7031   1.8498   1.8540   2.6296
     2.9405   2.9435   3.2099   4.1323   4.2225   7.1314   7.5227   7.6661
     7.7002   8.8115   9.0260   9.7346   9.8429  10.0436  10.4916  10.8735
    10.9938  11.1485  11.9389  12.4942  12.7150  12.9310  13.7842  13.9449
    14.0569  14.7456  14.8591  16.0000  16.4360  16.5985  16.6552  16.9215
    17.4673  17.5114  18.1806  18.3229  18.4791  18.5652  18.8832  19.7616
    19.9330  19.9532  20.5300  21.1306  21.2338  21.6246  22.4119  22.5408

          k = 0.1500 0.1500 0.2960 (  5479 PWs)   bands (ev):

    -9.5001  -9.4993  -9.4992  -9.4303  -9.4301  -6.5394  -5.5003  -5.1385
    -5.1141  -0.8269  -0.2037   0.1589   1.8113   1.8715   2.1308   2.5487
     2.8781   2.8822   3.1060   4.2382   4.3556   6.9965   7.3614   7.4960
     7.5825   8.4865   8.9549   9.2851   9.4153   9.9088  10.3026  11.3397
    11.4450  11.6143  12.3295  12.5011  13.0197  13.1648  13.8239  14.1567
    14.2186  14.7093  15.0099  16.0558  16.2111  16.5626  16.8105  17.1794
    17.5097  17.5451  18.0240  18.5410  18.6522  18.7921  18.9491  19.3438
    19.7715  19.9074  20.4479  20.7857  21.2341  21.3391  22.3200  22.4662

          k = 0.1312 0.1312 0.2590 (  5463 PWs)   bands (ev):

    -9.4997  -9.4991  -9.4990  -9.4304  -9.4302  -6.6314  -5.4123  -5.1106
    -5.0910  -0.8767  -0.2290   0.0597   1.8884   1.9345   2.4619   2.5504
     2.8262   2.8309   3.0113   4.3478   4.4753   6.8574   7.1872   7.3035
     7.5056   8.1651   8.7907   8.9355   8.9621   9.7552  10.0477  11.8700
    11.9639  12.1199  12.5943  12.7331  13.3225  13.4382  13.7936  14.3952
    14.4830  14.6153  15.1407  15.9866  16.1208  16.5843  16.9845  17.3380
    17.5327  17.5469  17.8224  18.2867  18.8054  18.9607  19.0097  19.4246
    19.7278  20.0371  20.3111  20.3955  21.0240  21.3017  21.9700  22.1472

          k = 0.1125 0.1125 0.2220 (  5471 PWs)   bands (ev):

    -9.4995  -9.4989  -9.4988  -9.4304  -9.4303  -6.7131  -5.3245  -5.0849
    -5.0699  -0.9406  -0.2700  -0.0517   1.9979   2.0364   2.4959   2.7834
     2.7888   2.9018   2.9270   4.4569   4.5797   6.7232   7.0195   7.1226
     7.3950   7.8669   8.3760   8.5304   8.8838   9.5905   9.7738  12.4205
    12.5058  12.6402  12.7690  13.1386  13.6076  13.7184  13.8125  14.3910
    14.6520  14.7802  15.2520  15.8944  16.2024  16.6271  17.0928  17.4121
    17.5009  17.5316  17.6150  18.1273  18.3671  18.9393  19.1194  19.7378
    19.9221  19.9336  20.1745  20.4282  20.7704  21.1702  21.4434  21.7087

          k = 0.0937 0.0937 0.1850 (  5468 PWs)   bands (ev):

    -9.4991  -9.4987  -9.4987  -9.4305  -9.4304  -6.7837  -5.2401  -5.0617
    -5.0509  -1.0125  -0.3197  -0.1650   2.1337   2.1663   2.5212   2.7501
     2.7551   2.8543   3.2954   4.5628   4.6682   6.5984   6.8635   6.9537
     7.2258   7.6027   8.0001   8.1399   8.8668   9.4256   9.5170  12.9454
    13.0247  13.0517  13.1649  13.5226  13.8049  13.9636  13.9801  14.1560
    14.9091  15.0358  15.3508  15.9140  16.3087  16.6862  17.0419  17.4075
    17.4159  17.5034  17.5485  17.9860  18.0309  18.8137  18.9867  19.5407
    19.6107  19.8909  20.4434  20.6289  20.7761  20.8162  21.0202  21.2752

          k = 0.0750 0.0750 0.1480 (  5479 PWs)   bands (ev):

    -9.4989  -9.4986  -9.4985  -9.4306  -9.4305  -6.8423  -5.1630  -5.0417
    -5.0345  -1.0851  -0.3707  -0.2704   2.2836   2.3103   2.5608   2.7243
     2.7289   2.7939   3.6914   4.6601   4.7398   6.4828   6.7209   6.7951
     6.9982   7.3664   7.6947   7.8062   8.8709   9.2707   9.3011  13.2412
    13.5228  13.5784  13.6446  13.7781  13.8911  14.0290  14.2111  14.2855
    15.1613  15.2709  15.4427  15.9934  16.4456  16.7485  16.8316  17.2725
    17.3766  17.4755  17.5650  17.7750  17.9631  18.6502  18.7991  19.1505
    19.2057  19.5505  20.0458  20.4001  20.4362  20.4921  21.2448  21.5590

          k = 0.0562 0.0562 0.1110 (  5478 PWs)   bands (ev):

    -9.4987  -9.4984  -9.4984  -9.4306  -9.4306  -6.8885  -5.0970  -5.0253
    -5.0211  -1.1512  -0.4167  -0.3599   2.4319   2.4520   2.6052   2.7054
     2.7095   2.7465   4.0800   4.7440   4.7949   6.3688   6.5946   6.6480
     6.7533   7.1414   7.4720   7.5430   8.8903   9.1366   9.1380  13.4934
    13.5962  13.8778  14.0410  14.0734  14.1781  14.3579  14.4406  14.5289
    15.4135  15.4768  15.5446  16.0931  16.5512  16.6773  16.7288  17.0929
    17.3304  17.4611  17.6221  17.7373  17.9137  18.4793  18.5778  18.7918
    18.7926  19.1462  19.4650  19.9027  19.9794  20.0276  21.8926  22.1407

          k = 0.0375 0.0375 0.0740 (  5474 PWs)   bands (ev):

    -9.4984  -9.4983  -9.4983  -9.4307  -9.4306  -6.9218  -5.0462  -5.0131
    -5.0112  -1.2043  -0.4529  -0.4276   2.5601   2.5735   2.6451   2.6927
     2.6958   2.7127   4.4426   4.8089   4.8336   6.2318   6.4905   6.5206
     6.5513   6.9406   7.3258   7.3586   8.9155   9.0275   9.0326  13.3868
    13.7792  13.9652  14.4425  14.4542  14.5706  14.6174  14.6577  14.7358
    15.6050  15.6788  15.7286  16.1781  16.3962  16.5196  16.8582  17.1125
    17.2726  17.4649  17.6527  17.7494  17.8893  18.2618  18.3032  18.5277
    18.5293  18.7622  18.9525  19.4257  19.4903  19.7047  22.5925  22.7397

          k = 0.0187 0.0187 0.0370 (  5467 PWs)   bands (ev):

    -9.4983  -9.4982  -9.4982  -9.4307  -9.4307  -6.9418  -5.0140  -5.0056
    -5.0051  -1.2386  -0.4759  -0.4696   2.6481   2.6558   2.6718   2.6866
     2.6867   2.6940   4.7372   4.8499   4.8564   6.0667   6.4216   6.4309
     6.4354   6.8030   7.2437   7.2520   8.9361   8.9644   8.9666  13.2705
    13.9708  14.0246  14.6934  14.6944  14.7352  14.8378  14.8580  14.8781
    15.7016  15.9394  15.9503  16.2237  16.2757  16.3148  17.0721  17.1725
    17.2150  17.5044  17.5955  17.6501  17.8608  18.1202  18.1760  18.3027
    18.4311  18.5184  18.5814  19.0584  19.0926  19.4938  23.2233  23.2854

          k = 0.0000 0.0000 0.0000 (  5449 PWs)   bands (ev):

    -9.4982  -9.4982  -9.4982  -9.4306  -9.4306  -6.9485  -5.0030  -5.0030
    -5.0030  -1.2505  -0.4838  -0.4838   2.6782   2.6782   2.6782   2.6893
     2.6893   2.6893   4.8642   4.8642   4.8642   5.9790   6.3984   6.3984
     6.3984   6.7554   7.2179   7.2179   8.9441   8.9441   8.9441  13.2299
    14.0478  14.0478  14.7750  14.7750  14.7750  14.9292  14.9292  14.9292
    15.7505  16.0675  16.0675  16.2333  16.2333  16.2333  17.1828  17.1828
    17.1828  17.5458  17.5458  17.5458  17.8023  18.1630  18.1630  18.1630
    18.4438  18.4438  18.4438  18.9110  18.9110  19.4198  23.4539  23.6204

     Writing all to output data dir ./outputs/gaalas75.save/

     init_run     :      1.44s CPU      1.83s WALL (       1 calls)
     electrons    :    498.17s CPU    565.91s WALL (       1 calls)

     Called by init_run:
     wfcinit      :      0.00s CPU      0.00s WALL (       1 calls)
     potinit      :      0.53s CPU      0.62s WALL (       1 calls)
     hinit0       :      0.68s CPU      0.83s WALL (       1 calls)

     Called by electrons:
     c_bands      :    498.16s CPU    565.89s WALL (       1 calls)
     v_of_rho     :      0.03s CPU      0.03s WALL (       1 calls)
     newd         :      0.18s CPU      0.32s WALL (       1 calls)
     PAW_pot      :      0.50s CPU      0.58s WALL (       1 calls)

     Called by c_bands:
     init_us_2    :      0.13s CPU      0.15s WALL (      81 calls)
     init_us_2:cp :      0.12s CPU      0.15s WALL (      81 calls)
     cegterg      :    484.17s CPU    551.16s WALL (     224 calls)

     Called by *egterg:
     cdiaghg      :     53.48s CPU    142.26s WALL (    3832 calls)
     h_psi        :    218.49s CPU    331.96s WALL (    4056 calls)
     s_psi        :     26.64s CPU     -7.12s WALL (    4056 calls)
     g_psi        :      4.17s CPU    -12.37s WALL (    3751 calls)

     Called by h_psi:
     h_psi:calbec :     27.61s CPU     61.60s WALL (    4056 calls)
     vloc_psi     :    161.79s CPU    240.18s WALL (    4056 calls)
     add_vuspsi   :     27.11s CPU     28.09s WALL (    4056 calls)

     General routines
     calbec       :     27.57s CPU     61.59s WALL (    4056 calls)
     fft          :      0.22s CPU      0.28s WALL (      12 calls)
     fftw         :    142.20s CPU    219.92s WALL (  244258 calls)
     davcio       :      0.16s CPU      1.14s WALL (     162 calls)

     Parallel routines

     PWSCF        :   8m19.99s CPU   9m31.12s WALL


   This run was terminated on:   6:53:19  16Dec2024            

=------------------------------------------------------------------------------=
   JOB DONE.
=------------------------------------------------------------------------------=
