
     Program PWSCF v.7.0 starts on 16Dec2024 at  6:15: 7 

     This program is part of the open-source Quantum ESPRESSO suite
     for quantum simulation of materials; please cite
         "P. Giannozzi et al., J. Phys.:Condens. Matter 21 395502 (2009);
         "P. Giannozzi et al., J. Phys.:Condens. Matter 29 465901 (2017);
         "P. Giannozzi et al., J. Chem. Phys. 152 154105 (2020);
          URL http://www.quantum-espresso.org", 
     in publications or presentations arising from this work. More details at
     http://www.quantum-espresso.org/quote

     Parallel version (MPI & OpenMP), running on       2 processor cores
     Number of MPI processes:                 2
     Threads/MPI process:                     1

     MPI processes distributed on     1 nodes
     R & G space division:  proc/nbgrp/npool/nimage =       2
     510 MiB available memory on the printing compute node when the environment starts

     Reading input from pw.scf.25.in

     Current dimensions of program PWSCF are:
     Max number of different atomic species (ntypx) = 10
     Max number of k-points (npk) =  40000
     Max angular momentum in pseudopotentials (lmaxx) =  4
     file Ga.pbe-dn-kjpaw_psl.1.0.0.UPF: wavefunction(s)  4S renormalized
     file Al.pbe-n-kjpaw_psl.1.0.0.UPF: wavefunction(s)  3S 3P renormalized

     IMPORTANT: XC functional enforced from input :
     Exchange-correlation= PBE
                           (   1   4   3   4   0   0   0)
     Any further DFT definition will be discarded
     Please, verify this is what you really want

     Message from routine setup:
     using ibrav=0 with symmetry is DISCOURAGED, use correct ibrav instead

     Subspace diagonalization in iterative solution of the eigenvalue problem:
     a serial algorithm will be used


     Parallelization info
     --------------------
     sticks:   dense  smooth     PW     G-vecs:    dense   smooth      PW
     Min         744     744    218                21909    21909    3465
     Max         745     745    219                21910    21910    3466
     Sum        1489    1489    437                43819    43819    6931

     Using Slab Decomposition



     bravais-lattice index     =            0
     lattice parameter (alat)  =      10.8663  a.u.
     unit-cell volume          =    1283.0421 (a.u.)^3
     number of atoms/cell      =            8
     number of atomic types    =            3
     number of electrons       =        62.00
     number of Kohn-Sham states=           37
     kinetic-energy cutoff     =      40.0000  Ry
     charge density cutoff     =     160.0000  Ry
     scf convergence threshold =      1.0E-08
     mixing beta               =       0.7000
     number of iterations used =            8  plain     mixing
     Exchange-correlation= PBE
                           (   1   4   3   4   0   0   0)

     celldm(1)=  10.866265  celldm(2)=   0.000000  celldm(3)=   0.000000
     celldm(4)=   0.000000  celldm(5)=   0.000000  celldm(6)=   0.000000

     crystal axes: (cart. coord. in units of alat)
               a(1) = (   1.000000   0.000000   0.000000 )  
               a(2) = (   0.000000   1.000000   0.000000 )  
               a(3) = (   0.000000   0.000000   1.000000 )  

     reciprocal axes: (cart. coord. in units 2 pi/alat)
               b(1) = (  1.000000  0.000000  0.000000 )  
               b(2) = (  0.000000  1.000000  0.000000 )  
               b(3) = (  0.000000  0.000000  1.000000 )  


     PseudoPot. # 1 for As read from file:
     ../Pseudopotentials/As.pbe-n-kjpaw_psl.1.0.0.UPF
     MD5 check sum: 21b474db91924651be503153fb2dbf55
     Pseudo is Projector augmented-wave + core cor, Zval =  5.0
     Generated using &quot;atomic&quot; code by A. Dal Corso  v.6.3
     Shape of augmentation charge: PSQ
     Using radial grid of 1209 points,  4 beta functions with: 
                l(1) =   0
                l(2) =   0
                l(3) =   1
                l(4) =   1
     Q(r) pseudized with 0 coefficients 


     PseudoPot. # 2 for Ga read from file:
     ../Pseudopotentials/Ga.pbe-dn-kjpaw_psl.1.0.0.UPF
     MD5 check sum: 50ce49cbf7e0a40ad8623bf41840a268
     Pseudo is Projector augmented-wave + core cor, Zval = 13.0
     Generated using &quot;atomic&quot; code by A. Dal Corso  v.6.3
     Shape of augmentation charge: PSQ
     Using radial grid of 1205 points,  6 beta functions with: 
                l(1) =   0
                l(2) =   0
                l(3) =   1
                l(4) =   1
                l(5) =   2
                l(6) =   2
     Q(r) pseudized with 0 coefficients 


     PseudoPot. # 3 for Al read from file:
     ../Pseudopotentials/Al.pbe-n-kjpaw_psl.1.0.0.UPF
     MD5 check sum: 502b6b27b9c6270cab5dd1084b96fa6d
     Pseudo is Projector augmented-wave + core cor, Zval =  3.0
     Generated using &quot;atomic&quot; code by A. Dal Corso  v.6.3
     Shape of augmentation charge: PSQ
     Using radial grid of 1135 points,  6 beta functions with: 
                l(1) =   0
                l(2) =   0
                l(3) =   1
                l(4) =   1
                l(5) =   2
                l(6) =   2
     Q(r) pseudized with 0 coefficients 


     atomic species   valence    mass     pseudopotential
        As             5.00    74.92100     As( 1.00)
        Ga            13.00    69.72300     Ga( 1.00)
        Al             3.00    26.98100     Al( 1.00)

     24 Sym. Ops. (no inversion) found (16 have fractional translation)



   Cartesian axes

     site n.     atom                  positions (alat units)
         1           As  tau(   1) = (   0.2500000   0.2500000   0.2500000  )
         2           As  tau(   2) = (   0.2500000   0.7500000   0.7500000  )
         3           As  tau(   3) = (   0.7500000   0.2500000   0.7500000  )
         4           As  tau(   4) = (   0.7500000   0.7500000   0.2500000  )
         5           Ga  tau(   5) = (   0.0000000   0.0000000   0.0000000  )
         6           Ga  tau(   6) = (   0.0000000   0.5000000   0.5000000  )
         7           Ga  tau(   7) = (   0.5000000   0.0000000   0.5000000  )
         8           Al  tau(   8) = (   0.5000000   0.5000000   0.0000000  )

     number of k points=    20  Marzari-Vanderbilt smearing, width (Ry)=  0.0050
                       cart. coord. in units 2pi/alat
        k(    1) = (   0.0000000   0.0000000   0.0000000), wk =   0.0092593
        k(    2) = (   0.0000000   0.0000000   0.1666667), wk =   0.0555556
        k(    3) = (   0.0000000   0.0000000   0.3333333), wk =   0.0555556
        k(    4) = (   0.0000000   0.0000000  -0.5000000), wk =   0.0277778
        k(    5) = (   0.0000000   0.1666667   0.1666667), wk =   0.1111111
        k(    6) = (   0.0000000   0.1666667   0.3333333), wk =   0.2222222
        k(    7) = (   0.0000000   0.1666667  -0.5000000), wk =   0.1111111
        k(    8) = (   0.0000000   0.3333333   0.3333333), wk =   0.1111111
        k(    9) = (   0.0000000   0.3333333  -0.5000000), wk =   0.1111111
        k(   10) = (   0.0000000  -0.5000000  -0.5000000), wk =   0.0277778
        k(   11) = (   0.1666667   0.1666667   0.1666667), wk =   0.0740741
        k(   12) = (   0.1666667   0.1666667   0.3333333), wk =   0.2222222
        k(   13) = (   0.1666667   0.1666667  -0.5000000), wk =   0.1111111
        k(   14) = (   0.1666667   0.3333333   0.3333333), wk =   0.2222222
        k(   15) = (   0.1666667   0.3333333  -0.5000000), wk =   0.2222222
        k(   16) = (   0.1666667  -0.5000000  -0.5000000), wk =   0.0555556
        k(   17) = (   0.3333333   0.3333333   0.3333333), wk =   0.0740741
        k(   18) = (   0.3333333   0.3333333  -0.5000000), wk =   0.1111111
        k(   19) = (   0.3333333  -0.5000000  -0.5000000), wk =   0.0555556
        k(   20) = (  -0.5000000  -0.5000000  -0.5000000), wk =   0.0092593

     Dense  grid:    43819 G-vectors     FFT dimensions: (  48,  48,  48)

     Estimated max dynamical RAM per process >     121.32 MB

     Estimated total dynamical RAM >     242.65 MB

     Check: negative core charge=   -0.000002

     Initial potential from superposition of free atoms

     starting charge      61.9879, renormalised to      62.0000
     Starting wfcs are   47 randomized atomic wfcs
     Checking if some PAW data can be deallocated... 

     total cpu time spent up to now is        4.8 secs

     per-process dynamical memory:    66.2 Mb

     Self-consistent Calculation

     iteration #  1     ecut=    40.00 Ry     beta= 0.70
     Davidson diagonalization with overlap
     ethr =  1.00E-02,  avg # of iterations =  3.0

     Threshold (ethr) on eigenvalues was too large:
     Diagonalizing with lowered threshold

     Davidson diagonalization with overlap
     ethr =  3.11E-04,  avg # of iterations =  5.3

     total cpu time spent up to now is       10.9 secs

     total energy              =   -1577.39764303 Ry
     estimated scf accuracy    <       0.20043704 Ry

     iteration #  2     ecut=    40.00 Ry     beta= 0.70
     Davidson diagonalization with overlap
     ethr =  3.23E-04,  avg # of iterations =  2.2

     total cpu time spent up to now is       18.9 secs

     WARNING: integrated charge=    62.00000967, expected=    62.00000000

     total energy              =   -1577.42792374 Ry
     estimated scf accuracy    <       0.04257368 Ry

     iteration #  3     ecut=    40.00 Ry     beta= 0.70
     Davidson diagonalization with overlap
     ethr =  6.87E-05,  avg # of iterations =  3.1

     total cpu time spent up to now is       11.1 secs

     total energy              =   -1577.43839354 Ry
     estimated scf accuracy    <       0.00601342 Ry

     iteration #  4     ecut=    40.00 Ry     beta= 0.70
     Davidson diagonalization with overlap
     ethr =  9.70E-06,  avg # of iterations =  5.2

     total cpu time spent up to now is       22.7 secs

     total energy              =   -1577.44119461 Ry
     estimated scf accuracy    <       0.00576349 Ry

     iteration #  5     ecut=    40.00 Ry     beta= 0.70
     Davidson diagonalization with overlap
     ethr =  9.30E-06,  avg # of iterations =  1.6

     total cpu time spent up to now is       29.3 secs

     total energy              =   -1577.44099583 Ry
     estimated scf accuracy    <       0.00152684 Ry

     iteration #  6     ecut=    40.00 Ry     beta= 0.70
     Davidson diagonalization with overlap
     ethr =  2.46E-06,  avg # of iterations =  4.5

     total cpu time spent up to now is       24.2 secs

     total energy              =   -1577.44115606 Ry
     estimated scf accuracy    <       0.00521552 Ry

     iteration #  7     ecut=    40.00 Ry     beta= 0.70
     Davidson diagonalization with overlap
     ethr =  2.46E-06,  avg # of iterations =  3.1

     total cpu time spent up to now is       32.9 secs

     total energy              =   -1577.44136354 Ry
     estimated scf accuracy    <       0.00036813 Ry

     iteration #  8     ecut=    40.00 Ry     beta= 0.70
     Davidson diagonalization with overlap
     ethr =  5.94E-07,  avg # of iterations =  2.2

     total cpu time spent up to now is       84.4 secs

     total energy              =   -1577.44137267 Ry
     estimated scf accuracy    <       0.00006944 Ry

     iteration #  9     ecut=    40.00 Ry     beta= 0.70
     Davidson diagonalization with overlap
     ethr =  1.12E-07,  avg # of iterations =  4.0

     total cpu time spent up to now is       93.9 secs

     total energy              =   -1577.44140353 Ry
     estimated scf accuracy    <       0.00000453 Ry

     iteration # 10     ecut=    40.00 Ry     beta= 0.70
     Davidson diagonalization with overlap
     ethr =  7.31E-09,  avg # of iterations =  2.2

     total cpu time spent up to now is      100.6 secs

     total energy              =   -1577.44140340 Ry
     estimated scf accuracy    <       0.00000115 Ry

     iteration # 11     ecut=    40.00 Ry     beta= 0.70
     Davidson diagonalization with overlap
     ethr =  1.86E-09,  avg # of iterations =  4.0

     total cpu time spent up to now is       92.2 secs

     total energy              =   -1577.44140389 Ry
     estimated scf accuracy    <       0.00000039 Ry

     iteration # 12     ecut=    40.00 Ry     beta= 0.70
     Davidson diagonalization with overlap
     ethr =  6.31E-10,  avg # of iterations =  1.1

     total cpu time spent up to now is       98.6 secs

     total energy              =   -1577.44140386 Ry
     estimated scf accuracy    <       0.00000024 Ry

     iteration # 13     ecut=    40.00 Ry     beta= 0.70
     Davidson diagonalization with overlap
     ethr =  3.87E-10,  avg # of iterations =  1.0

     total cpu time spent up to now is       87.8 secs

     total energy              =   -1577.44140383 Ry
     estimated scf accuracy    <       0.00000014 Ry

     iteration # 14     ecut=    40.00 Ry     beta= 0.70
     Davidson diagonalization with overlap
     ethr =  2.18E-10,  avg # of iterations =  3.0

     total cpu time spent up to now is       95.9 secs

     End of self-consistent calculation

          k = 0.0000 0.0000 0.0000 (  5449 PWs)   bands (ev):

    -8.8758  -8.8758  -8.8758  -8.7961  -8.7961  -8.7961  -8.7687  -8.7687
    -8.7687  -8.7622  -8.7545  -8.7545  -8.7363  -8.7363  -8.7315  -6.4949
    -4.3101  -4.3101  -4.3101  -0.8090  -0.8090  -0.0668   3.3021   3.3021
     3.3021   3.3085   3.3085   3.3085   5.7328   5.7328   5.7328   6.2012
     7.2897   7.2897   7.2897   7.3218   7.3218

          k = 0.0000 0.0000 0.1667 (  5486 PWs)   bands (ev):

    -8.8740  -8.8740  -8.8733  -8.8011  -8.7957  -8.7957  -8.7720  -8.7720
    -8.7691  -8.7605  -8.7543  -8.7528  -8.7377  -8.7363  -8.7326  -6.3977
    -4.5627  -4.2997  -4.2997  -0.7683  -0.5671   0.1071   3.0538   3.0903
     3.1235   3.1235   3.4112   3.4112   4.5453   5.4418   5.4418   7.1650
     7.4348   7.7324   7.7760   7.7760   7.8442

          k = 0.0000 0.0000 0.3333 (  5486 PWs)   bands (ev):

    -8.8698  -8.8698  -8.8668  -8.8119  -8.7937  -8.7937  -8.7799  -8.7799
    -8.7698  -8.7564  -8.7537  -8.7486  -8.7413  -8.7365  -8.7357  -6.1147
    -5.1006  -4.2782  -4.2782  -0.6794  -0.2721   0.7966   2.6328   2.7028
     2.8218   2.8218   3.2114   3.7201   3.7201   4.8370   4.8370   7.4066
     8.3103   8.3854   8.7857   8.9994   9.0844

          k = 0.0000 0.0000-0.5000 (  5478 PWs)   bands (ev):

    -8.8676  -8.8676  -8.8624  -8.8183  -8.7902  -8.7902  -8.7863  -8.7863
    -8.7703  -8.7540  -8.7523  -8.7453  -8.7444  -8.7390  -8.7360  -5.7341
    -5.5898  -4.2676  -4.2676  -0.6306  -0.1770   1.6691   2.1751   2.4440
     2.5226   2.6914   2.6914   4.1600   4.1600   4.2732   4.2732   7.7447
     7.9390   8.9220   8.9755  10.2150  10.3374

          k = 0.0000 0.1667 0.1667 (  5465 PWs)   bands (ev):

    -8.8742  -8.8720  -8.8687  -8.8060  -8.7953  -8.7951  -8.7751  -8.7730
    -8.7716  -8.7589  -8.7531  -8.7519  -8.7382  -8.7370  -8.7336  -6.3025
    -4.5536  -4.5140  -4.3041  -0.6437  -0.4210   0.2007   2.5650   3.1234
     3.1401   3.2995   3.3191   3.4827   3.8200   5.1347   5.6357   7.4801
     7.5378   7.7112   7.9214   8.1557   8.4697

          k = 0.0000 0.1667 0.3333 (  5483 PWs)   bands (ev):

    -8.8718  -8.8676  -8.8615  -8.8162  -8.7938  -8.7934  -8.7822  -8.7803
    -8.7728  -8.7550  -8.7521  -8.7481  -8.7412  -8.7374  -8.7363  -6.0260
    -5.0452  -4.4617  -4.3269  -0.5518  -0.1646   0.7017   2.2331   2.6142
     2.7460   3.1874   3.4030   3.4480   3.7589   4.5047   5.1550   7.9078
     8.1781   8.4113   8.7368   9.0783   9.1162

          k = 0.0000 0.1667-0.5000 (  5478 PWs)   bands (ev):

    -8.8702  -8.8649  -8.8573  -8.8222  -8.7913  -8.7903  -8.7872  -8.7870
    -8.7731  -8.7525  -8.7510  -8.7448  -8.7441  -8.7394  -8.7370  -5.6550
    -5.5166  -4.3945  -4.3702  -0.5160  -0.1087   1.4155   1.8869   2.2432
     2.2791   3.2373   3.2548   3.8324   3.9304   4.3704   4.4531   8.2358
     8.4588   9.0293   9.0745   9.4161   9.7729

          k = 0.0000 0.3333 0.3333 (  5492 PWs)   bands (ev):

    -8.8724  -8.8617  -8.8540  -8.8262  -8.7931  -8.7929  -8.7869  -8.7817
    -8.7797  -8.7514  -8.7492  -8.7463  -8.7419  -8.7392  -8.7384  -5.7701
    -4.9331  -4.8469  -4.4660  -0.3385   0.1140   0.5799   1.9307   2.0919
     2.8000   2.8114   3.8507   3.8819   3.8919   3.9735   5.2760   8.0150
     8.2848   9.0426   9.3403   9.5075   9.7182

          k = 0.0000 0.3333-0.5000 (  5452 PWs)   bands (ev):

    -8.8720  -8.8572  -8.8500  -8.8327  -8.7925  -8.7902  -8.7889  -8.7876
    -8.7808  -8.7484  -8.7478  -8.7441  -8.7432  -8.7411  -8.7396  -5.4293
    -5.3121  -4.7115  -4.6322  -0.1946   0.0904   0.8669   1.3541   2.3082
     2.3101   3.2019   3.2733   4.0390   4.0574   4.6777   4.7390   8.5730
     8.6654   8.7203   9.1948   9.7289   9.8446

          k = 0.0000-0.5000-0.5000 (  5472 PWs)   bands (ev):

    -8.8726  -8.8467  -8.8467  -8.8447  -8.7901  -8.7901  -8.7898  -8.7881
    -8.7878  -8.7447  -8.7444  -8.7440  -8.7440  -8.7427  -8.7427  -5.0952
    -5.0897  -5.0897  -4.8840   0.2668   0.2668   0.3088   1.0394   2.6214
     2.6661   2.6661   2.6942   4.6205   4.6374   4.6374   4.7018   8.3101
     8.4357   8.4357   8.8472  11.1321  11.1321

          k = 0.1667 0.1667 0.1667 (  5497 PWs)   bands (ev):

    -8.8750  -8.8672  -8.8672  -8.8106  -8.7949  -8.7949  -8.7760  -8.7760
    -8.7743  -8.7574  -8.7514  -8.7514  -8.7381  -8.7381  -8.7345  -6.2096
    -4.5382  -4.5382  -4.4786  -0.4351  -0.4351   0.2414   2.7335   2.7335
     2.7588   3.2260   3.5783   3.5783   3.5877   5.4014   5.4014   7.3368
     7.5799   7.5799   7.9245   9.0085   9.0085

          k = 0.1667 0.1667 0.3333 (  5477 PWs)   bands (ev):

    -8.8732  -8.8637  -8.8592  -8.8203  -8.7936  -8.7934  -8.7828  -8.7822
    -8.7757  -8.7536  -8.7506  -8.7474  -8.7412  -8.7381  -8.7367  -5.9406
    -4.9984  -4.5059  -4.4628  -0.4697  -0.1673   0.5644   2.2412   2.4318
     2.5102   3.2722   3.5804   3.5879   3.8712   4.8849   4.9464   7.7964
     7.9750   8.2298   8.5145   9.4353   9.6178

          k = 0.1667 0.1667-0.5000 (  5464 PWs)   bands (ev):

    -8.8718  -8.8619  -8.8546  -8.8260  -8.7918  -8.7907  -8.7879  -8.7877
    -8.7759  -8.7510  -8.7497  -8.7441  -8.7439  -8.7395  -8.7376  -5.5813
    -5.4483  -4.4895  -4.4476  -0.4905  -0.1275   1.1183   1.5433   2.3456
     2.4226   3.5020   3.5134   4.0500   4.0792   4.2770   4.3791   8.1490
     8.3532   9.2026   9.3152   9.4733   9.8114

          k = 0.1667 0.3333 0.3333 (  5485 PWs)   bands (ev):

    -8.8735  -8.8584  -8.8535  -8.8295  -8.7932  -8.7931  -8.7870  -8.7836
    -8.7820  -8.7504  -8.7476  -8.7456  -8.7416  -8.7398  -8.7382  -5.6952
    -4.9121  -4.8302  -4.5567  -0.3797  -0.0665   0.3665   1.4874   2.4595
     2.9972   3.0383   3.9963   4.0100   4.0517   4.3543   5.1781   7.6587
     8.0654   8.3765   8.7677  10.0990  10.1202

          k = 0.1667 0.3333-0.5000 (  5480 PWs)   bands (ev):

    -8.8730  -8.8555  -8.8495  -8.8354  -8.7930  -8.7910  -8.7894  -8.7883
    -8.7830  -8.7475  -8.7466  -8.7437  -8.7428  -8.7408  -8.7397  -5.3727
    -5.2609  -4.7429  -4.6563  -0.3420  -0.0904   0.5390   0.9788   2.6596
     2.7303   3.6634   3.7006   4.1282   4.1405   4.6374   4.6916   8.0801
     8.2684   8.5253   8.9737   9.8670  10.0347

          k = 0.1667-0.5000-0.5000 (  5468 PWs)   bands (ev):

    -8.8733  -8.8470  -8.8470  -8.8454  -8.7911  -8.7911  -8.7906  -8.7887
    -8.7882  -8.7440  -8.7435  -8.7435  -8.7433  -8.7421  -8.7421  -5.0714
    -5.0673  -5.0673  -4.8617  -0.0045  -0.0045   0.0217   0.6799   3.1155
     3.1362   3.1362   3.2206   4.6443   4.6527   4.6527   4.7182   8.0383
     8.1277   8.1277   8.7059  10.3334  10.4735

          k = 0.3333 0.3333 0.3333 (  5478 PWs)   bands (ev):

    -8.8743  -8.8524  -8.8524  -8.8367  -8.7932  -8.7932  -8.7873  -8.7873
    -8.7870  -8.7478  -8.7442  -8.7442  -8.7413  -8.7413  -8.7384  -5.4843
    -4.8689  -4.8689  -4.7293  -0.3715  -0.3715   0.0496   0.8110   3.2976
     3.2976   3.4063   4.2488   4.2488   4.2936   4.9180   4.9180   6.9979
     7.9553   7.9553   8.5142  10.1497  10.1497

          k = 0.3333 0.3333-0.5000 (  5522 PWs)   bands (ev):

    -8.8743  -8.8519  -8.8485  -8.8416  -8.7938  -8.7925  -8.7906  -8.7890
    -8.7874  -8.7455  -8.7437  -8.7431  -8.7416  -8.7411  -8.7397  -5.2201
    -5.1292  -4.8469  -4.7344  -0.5056  -0.3339  -0.0152   0.4451   3.4296
     3.5002   4.3028   4.3517   4.3902   4.4267   4.5457   4.6135   7.3275
     7.5561   7.9297   8.4749   9.9089  10.0039

          k = 0.3333-0.5000-0.5000 (  5524 PWs)   bands (ev):

    -8.8747  -8.8477  -8.8477  -8.8472  -8.7930  -8.7930  -8.7929  -8.7892
    -8.7890  -8.7434  -8.7432  -8.7432  -8.7410  -8.7406  -8.7406  -5.0225
    -5.0210  -5.0210  -4.8161  -0.4109  -0.4109  -0.4036   0.2132   4.0778
     4.0910   4.0910   4.1544   4.6839   4.6839   4.6942   4.7494   7.2362
     7.2651   7.2651   8.0523  10.0495  10.3382

          k =-0.5000-0.5000-0.5000 (  5520 PWs)   bands (ev):

    -8.8752  -8.8480  -8.8480  -8.8480  -8.7940  -8.7940  -8.7940  -8.7893
    -8.7893  -8.7430  -8.7430  -8.7430  -8.7398  -8.7398  -8.7398  -4.9967
    -4.9967  -4.9967  -4.7915  -0.5780  -0.5780  -0.5780   0.0323   4.6705
     4.6705   4.6705   4.7213   4.7213   4.7639   4.7639   4.7639   6.6262
     6.6262   6.6262   7.5590  10.1237  10.1237

     the Fermi energy is     6.0186 ev

!    total energy              =   -1577.44140385 Ry

     total all-electron energy =    -30237.947602 Ry
     estimated scf accuracy    <          2.4E-11 Ry
     smearing contrib. (-TS)   =       0.00000000 Ry
     internal energy E=F+TS    =   -1577.44140385 Ry

     The total energy is F=E-TS. E is the sum of the following terms:
     one-electron contribution =    -392.23466422 Ry
     hartree contribution      =     245.13304107 Ry
     xc contribution           =    -163.06862237 Ry
     ewald contribution        =    -274.82594845 Ry
     one-center paw contrib.   =    -992.44520988 Ry

     convergence has been achieved in  14 iterations

     Forces acting on atoms (cartesian axes, Ry/au):

     atom    1 type  1   force =     0.00390769    0.00390769   -0.00390769
     atom    2 type  1   force =     0.00390769   -0.00390769    0.00390769
     atom    3 type  1   force =    -0.00390769    0.00390769    0.00390769
     atom    4 type  1   force =    -0.00390769   -0.00390769   -0.00390769
     atom    5 type  2   force =     0.00000000    0.00000000    0.00000000
     atom    6 type  2   force =     0.00000000    0.00000000    0.00000000
     atom    7 type  2   force =     0.00000000    0.00000000    0.00000000
     atom    8 type  3   force =     0.00000000    0.00000000    0.00000000

     Total force =     0.013537     Total SCF correction =     0.000001


     Computing stress (Cartesian axis) and pressure

          total   stress  (Ry/bohr**3)                   (kbar)     P=      -15.82
  -0.00010756   0.00000000   0.00000000          -15.82        0.00        0.00
   0.00000000  -0.00010756   0.00000000            0.00      -15.82        0.00
   0.00000000   0.00000000  -0.00010756            0.00        0.00      -15.82


     Writing all to output data dir ./outputs/gaalas25.save/

     init_run     :      4.42s CPU      4.53s WALL (       1 calls)
     electrons    :    115.34s CPU     91.14s WALL (       1 calls)
     forces       :      1.13s CPU      1.32s WALL (       1 calls)
     stress       :      4.08s CPU      4.39s WALL (       1 calls)

     Called by init_run:
     wfcinit      :      2.66s CPU      2.73s WALL (       1 calls)
     potinit      :      0.56s CPU      0.57s WALL (       1 calls)
     hinit0       :      0.86s CPU      0.89s WALL (       1 calls)

     Called by electrons:
     c_bands      :     90.55s CPU     95.49s WALL (      15 calls)
     sum_band     :     14.97s CPU     17.66s WALL (      15 calls)
     v_of_rho     :      0.43s CPU      0.44s WALL (      15 calls)
     newd         :      2.53s CPU    -13.67s WALL (      15 calls)
     PAW_pot      :      7.58s CPU     -8.10s WALL (      15 calls)
     mix_rho      :      0.08s CPU      0.09s WALL (      15 calls)

     Called by c_bands:
     init_us_2    :      1.13s CPU      1.20s WALL (     660 calls)
     init_us_2:cp :      1.12s CPU      1.20s WALL (     660 calls)
     cegterg      :     87.59s CPU     92.25s WALL (     300 calls)

     Called by *egterg:
     cdiaghg      :      3.26s CPU      3.49s WALL (    1196 calls)
     h_psi        :     61.82s CPU     81.32s WALL (    1236 calls)
     s_psi        :      6.76s CPU      7.12s WALL (    1236 calls)
     g_psi        :      0.74s CPU      0.76s WALL (     916 calls)

     Called by h_psi:
     h_psi:calbec :      6.92s CPU      7.36s WALL (    1236 calls)
     vloc_psi     :     47.83s CPU     66.59s WALL (    1236 calls)
     add_vuspsi   :      6.82s CPU      7.11s WALL (    1236 calls)

     General routines
     calbec       :     10.22s CPU     11.17s WALL (    1636 calls)
     fft          :      0.65s CPU      0.68s WALL (     191 calls)
     ffts         :      0.02s CPU      0.02s WALL (      15 calls)
     fftw         :     48.97s CPU     68.65s WALL (   71424 calls)

     Parallel routines

     PWSCF        :   2m 5.21s CPU   1m41.95s WALL


   This run was terminated on:   6:16:49  16Dec2024            

=------------------------------------------------------------------------------=
   JOB DONE.
=------------------------------------------------------------------------------=
