
     Program PWSCF v.7.0 starts on 16Dec2024 at  6:17:14 

     This program is part of the open-source Quantum ESPRESSO suite
     for quantum simulation of materials; please cite
         "P. Giannozzi et al., J. Phys.:Condens. Matter 21 395502 (2009);
         "P. Giannozzi et al., J. Phys.:Condens. Matter 29 465901 (2017);
         "P. Giannozzi et al., J. Chem. Phys. 152 154105 (2020);
          URL http://www.quantum-espresso.org", 
     in publications or presentations arising from this work. More details at
     http://www.quantum-espresso.org/quote

     Parallel version (MPI & OpenMP), running on       2 processor cores
     Number of MPI processes:                 2
     Threads/MPI process:                     1

     MPI processes distributed on     1 nodes
     R & G space division:  proc/nbgrp/npool/nimage =       2
     437 MiB available memory on the printing compute node when the environment starts

     Reading input from pw.scf.50.in

     Current dimensions of program PWSCF are:
     Max number of different atomic species (ntypx) = 10
     Max number of k-points (npk) =  40000
     Max angular momentum in pseudopotentials (lmaxx) =  4
     file Ga.pbe-dn-kjpaw_psl.1.0.0.UPF: wavefunction(s)  4S renormalized
     file Al.pbe-n-kjpaw_psl.1.0.0.UPF: wavefunction(s)  3S 3P renormalized

     IMPORTANT: XC functional enforced from input :
     Exchange-correlation= PBE
                           (   1   4   3   4   0   0   0)
     Any further DFT definition will be discarded
     Please, verify this is what you really want

     Found identity + (  0.0000 -0.5000 -0.5000) symmetry
     This is a supercell, fractional translations are disabled
     Message from routine setup:
     using ibrav=0 with symmetry is DISCOURAGED, use correct ibrav instead

     Subspace diagonalization in iterative solution of the eigenvalue problem:
     a serial algorithm will be used


     Parallelization info
     --------------------
     sticks:   dense  smooth     PW     G-vecs:    dense   smooth      PW
     Min         744     744    218                21909    21909    3465
     Max         745     745    219                21910    21910    3466
     Sum        1489    1489    437                43819    43819    6931

     Using Slab Decomposition



     bravais-lattice index     =            0
     lattice parameter (alat)  =      10.8663  a.u.
     unit-cell volume          =    1283.0421 (a.u.)^3
     number of atoms/cell      =            8
     number of atomic types    =            3
     number of electrons       =        52.00
     number of Kohn-Sham states=           31
     kinetic-energy cutoff     =      40.0000  Ry
     charge density cutoff     =     160.0000  Ry
     scf convergence threshold =      1.0E-08
     mixing beta               =       0.7000
     number of iterations used =            8  plain     mixing
     Exchange-correlation= PBE
                           (   1   4   3   4   0   0   0)

     celldm(1)=  10.866265  celldm(2)=   0.000000  celldm(3)=   0.000000
     celldm(4)=   0.000000  celldm(5)=   0.000000  celldm(6)=   0.000000

     crystal axes: (cart. coord. in units of alat)
               a(1) = (   1.000000   0.000000   0.000000 )  
               a(2) = (   0.000000   1.000000   0.000000 )  
               a(3) = (   0.000000   0.000000   1.000000 )  

     reciprocal axes: (cart. coord. in units 2 pi/alat)
               b(1) = (  1.000000  0.000000  0.000000 )  
               b(2) = (  0.000000  1.000000  0.000000 )  
               b(3) = (  0.000000  0.000000  1.000000 )  


     PseudoPot. # 1 for As read from file:
     ../Pseudopotentials/As.pbe-n-kjpaw_psl.1.0.0.UPF
     MD5 check sum: 21b474db91924651be503153fb2dbf55
     Pseudo is Projector augmented-wave + core cor, Zval =  5.0
     Generated using &quot;atomic&quot; code by A. Dal Corso  v.6.3
     Shape of augmentation charge: PSQ
     Using radial grid of 1209 points,  4 beta functions with: 
                l(1) =   0
                l(2) =   0
                l(3) =   1
                l(4) =   1
     Q(r) pseudized with 0 coefficients 


     PseudoPot. # 2 for Ga read from file:
     ../Pseudopotentials/Ga.pbe-dn-kjpaw_psl.1.0.0.UPF
     MD5 check sum: 50ce49cbf7e0a40ad8623bf41840a268
     Pseudo is Projector augmented-wave + core cor, Zval = 13.0
     Generated using &quot;atomic&quot; code by A. Dal Corso  v.6.3
     Shape of augmentation charge: PSQ
     Using radial grid of 1205 points,  6 beta functions with: 
                l(1) =   0
                l(2) =   0
                l(3) =   1
                l(4) =   1
                l(5) =   2
                l(6) =   2
     Q(r) pseudized with 0 coefficients 


     PseudoPot. # 3 for Al read from file:
     ../Pseudopotentials/Al.pbe-n-kjpaw_psl.1.0.0.UPF
     MD5 check sum: 502b6b27b9c6270cab5dd1084b96fa6d
     Pseudo is Projector augmented-wave + core cor, Zval =  3.0
     Generated using &quot;atomic&quot; code by A. Dal Corso  v.6.3
     Shape of augmentation charge: PSQ
     Using radial grid of 1135 points,  6 beta functions with: 
                l(1) =   0
                l(2) =   0
                l(3) =   1
                l(4) =   1
                l(5) =   2
                l(6) =   2
     Q(r) pseudized with 0 coefficients 


     atomic species   valence    mass     pseudopotential
        As             5.00    74.92100     As( 1.00)
        Ga            13.00    69.72300     Ga( 1.00)
        Al             3.00    26.98100     Al( 1.00)

      8 Sym. Ops. (no inversion) found



   Cartesian axes

     site n.     atom                  positions (alat units)
         1           As  tau(   1) = (   0.2500000   0.2500000   0.2500000  )
         2           As  tau(   2) = (   0.2500000   0.7500000   0.7500000  )
         3           As  tau(   3) = (   0.7500000   0.2500000   0.7500000  )
         4           As  tau(   4) = (   0.7500000   0.7500000   0.2500000  )
         5           Ga  tau(   5) = (   0.0000000   0.0000000   0.0000000  )
         6           Ga  tau(   6) = (   0.0000000   0.5000000   0.5000000  )
         7           Al  tau(   7) = (   0.5000000   0.0000000   0.5000000  )
         8           Al  tau(   8) = (   0.5000000   0.5000000   0.0000000  )

     number of k points=    40  Marzari-Vanderbilt smearing, width (Ry)=  0.0050
                       cart. coord. in units 2pi/alat
        k(    1) = (   0.0000000   0.0000000   0.0000000), wk =   0.0092593
        k(    2) = (   0.0000000   0.0000000   0.1666667), wk =   0.0370370
        k(    3) = (   0.0000000   0.0000000   0.3333333), wk =   0.0370370
        k(    4) = (   0.0000000   0.0000000  -0.5000000), wk =   0.0185185
        k(    5) = (   0.0000000   0.1666667   0.1666667), wk =   0.0370370
        k(    6) = (   0.0000000   0.1666667   0.3333333), wk =   0.0740741
        k(    7) = (   0.0000000   0.1666667  -0.5000000), wk =   0.0370370
        k(    8) = (   0.0000000   0.3333333   0.3333333), wk =   0.0370370
        k(    9) = (   0.0000000   0.3333333  -0.5000000), wk =   0.0370370
        k(   10) = (   0.0000000  -0.5000000  -0.5000000), wk =   0.0092593
        k(   11) = (   0.1666667   0.1666667   0.1666667), wk =   0.0740741
        k(   12) = (   0.1666667   0.1666667   0.3333333), wk =   0.1481481
        k(   13) = (   0.1666667   0.1666667  -0.5000000), wk =   0.0740741
        k(   14) = (   0.1666667   0.3333333   0.3333333), wk =   0.0740741
        k(   15) = (   0.1666667   0.3333333  -0.5000000), wk =   0.0740741
        k(   16) = (   0.1666667  -0.5000000  -0.5000000), wk =   0.0185185
        k(   17) = (   0.3333333   0.3333333   0.3333333), wk =   0.0740741
        k(   18) = (   0.3333333   0.3333333  -0.5000000), wk =   0.0740741
        k(   19) = (   0.3333333  -0.5000000  -0.5000000), wk =   0.0185185
        k(   20) = (  -0.5000000  -0.5000000  -0.5000000), wk =   0.0092593
        k(   21) = (   0.1666667   0.0000000   0.0000000), wk =   0.0185185
        k(   22) = (   0.3333333   0.0000000   0.0000000), wk =   0.0185185
        k(   23) = (  -0.5000000   0.0000000   0.0000000), wk =   0.0092593
        k(   24) = (   0.1666667  -0.1666667   0.0000000), wk =   0.0740741
        k(   25) = (   0.3333333  -0.1666667   0.0000000), wk =   0.0740741
        k(   26) = (   0.1666667   0.3333333   0.0000000), wk =   0.0740741
        k(   27) = (  -0.5000000  -0.1666667   0.0000000), wk =   0.0370370
        k(   28) = (   0.1666667  -0.5000000   0.0000000), wk =   0.0370370
        k(   29) = (   0.3333333  -0.3333333   0.0000000), wk =   0.0740741
        k(   30) = (  -0.5000000  -0.3333333   0.0000000), wk =   0.0370370
        k(   31) = (   0.3333333  -0.5000000   0.0000000), wk =   0.0370370
        k(   32) = (  -0.5000000   0.5000000   0.0000000), wk =   0.0185185
        k(   33) = (   0.3333333  -0.1666667   0.1666667), wk =   0.0740741
        k(   34) = (  -0.5000000  -0.1666667   0.1666667), wk =   0.0370370
        k(   35) = (   0.3333333  -0.3333333   0.1666667), wk =   0.1481481
        k(   36) = (  -0.5000000  -0.3333333   0.1666667), wk =   0.0740741
        k(   37) = (   0.3333333  -0.5000000   0.1666667), wk =   0.0740741
        k(   38) = (  -0.5000000   0.5000000   0.1666667), wk =   0.0370370
        k(   39) = (  -0.5000000  -0.3333333   0.3333333), wk =   0.0370370
        k(   40) = (  -0.5000000   0.5000000   0.3333333), wk =   0.0370370

     Dense  grid:    43819 G-vectors     FFT dimensions: (  45,  45,  45)

     Estimated max dynamical RAM per process >     141.38 MB

     Estimated total dynamical RAM >     282.76 MB

     Check: negative core charge=   -0.000002

     Initial potential from superposition of free atoms

     starting charge      51.9886, renormalised to      52.0000
     Starting wfcs are   42 randomized atomic wfcs
     Checking if some PAW data can be deallocated... 

     total cpu time spent up to now is        6.1 secs

     per-process dynamical memory:    86.9 Mb

     Self-consistent Calculation

     iteration #  1     ecut=    40.00 Ry     beta= 0.70
     Davidson diagonalization with overlap
     ethr =  1.00E-02,  avg # of iterations =  3.0

     Threshold (ethr) on eigenvalues was too large:
     Diagonalizing with lowered threshold

     Davidson diagonalization with overlap
     ethr =  4.10E-04,  avg # of iterations =  4.7

     total cpu time spent up to now is       74.6 secs

     total energy              =   -1338.99727267 Ry
     estimated scf accuracy    <       0.21997367 Ry

     iteration #  2     ecut=    40.00 Ry     beta= 0.70
     Davidson diagonalization with overlap
     ethr =  4.23E-04,  avg # of iterations =  2.6

     total cpu time spent up to now is       85.9 secs

     total energy              =   -1339.03093625 Ry
     estimated scf accuracy    <       0.04620992 Ry

     iteration #  3     ecut=    40.00 Ry     beta= 0.70
     Davidson diagonalization with overlap
     ethr =  8.89E-05,  avg # of iterations =  4.0

     total cpu time spent up to now is       80.9 secs

     total energy              =   -1339.04354990 Ry
     estimated scf accuracy    <       0.00853643 Ry

     iteration #  4     ecut=    40.00 Ry     beta= 0.70
     Davidson diagonalization with overlap
     ethr =  1.64E-05,  avg # of iterations =  5.5

     total cpu time spent up to now is       78.9 secs

     total energy              =   -1339.04714465 Ry
     estimated scf accuracy    <       0.00478287 Ry

     iteration #  5     ecut=    40.00 Ry     beta= 0.70
     Davidson diagonalization with overlap
     ethr =  9.20E-06,  avg # of iterations =  2.3

     total cpu time spent up to now is       89.2 secs

     total energy              =   -1339.04758314 Ry
     estimated scf accuracy    <       0.00058701 Ry

     iteration #  6     ecut=    40.00 Ry     beta= 0.70
     Davidson diagonalization with overlap
     ethr =  1.13E-06,  avg # of iterations =  5.0

     total cpu time spent up to now is      139.2 secs

     total energy              =   -1339.04767074 Ry
     estimated scf accuracy    <       0.00123879 Ry

     iteration #  7     ecut=    40.00 Ry     beta= 0.70
     Davidson diagonalization with overlap
     ethr =  1.13E-06,  avg # of iterations =  3.1

     total cpu time spent up to now is      150.9 secs

     total energy              =   -1339.04775346 Ry
     estimated scf accuracy    <       0.00003144 Ry

     iteration #  8     ecut=    40.00 Ry     beta= 0.70
     Davidson diagonalization with overlap
     ethr =  6.05E-08,  avg # of iterations =  5.0

     total cpu time spent up to now is      147.2 secs

     total energy              =   -1339.04776348 Ry
     estimated scf accuracy    <       0.00000027 Ry

     iteration #  9     ecut=    40.00 Ry     beta= 0.70
     Davidson diagonalization with overlap
     ethr =  5.23E-10,  avg # of iterations =  5.4

     total cpu time spent up to now is      147.3 secs

     total energy              =   -1339.04776403 Ry
     estimated scf accuracy    <       0.00000106 Ry

     iteration # 10     ecut=    40.00 Ry     beta= 0.70
     Davidson diagonalization with overlap
     ethr =  5.23E-10,  avg # of iterations =  3.4

     total cpu time spent up to now is      158.5 secs

     total energy              =   -1339.04776404 Ry
     estimated scf accuracy    <       0.00000019 Ry

     iteration # 11     ecut=    40.00 Ry     beta= 0.70
     Davidson diagonalization with overlap
     ethr =  3.56E-10,  avg # of iterations =  1.8

     total cpu time spent up to now is      151.6 secs

     total energy              =   -1339.04776404 Ry
     estimated scf accuracy    <       0.00000004 Ry

     iteration # 12     ecut=    40.00 Ry     beta= 0.70
     Davidson diagonalization with overlap
     ethr =  7.55E-11,  avg # of iterations =  4.0

     total cpu time spent up to now is      163.9 secs

     End of self-consistent calculation

          k = 0.0000 0.0000 0.0000 (  5449 PWs)   bands (ev):

    -9.1986  -9.1793  -9.1793  -9.1319  -9.1319  -9.1104  -9.0961  -9.0954
    -9.0814  -9.0778  -6.7239  -4.6579  -4.6560  -4.6560  -1.1482  -0.6641
    -0.1390   2.9868   2.9933   2.9933   2.9938   2.9938   3.0045   5.2681
     5.3088   5.3088   6.1016   6.8136   6.8277   6.8277   6.8850

          k = 0.0000 0.0000 0.1667 (  5486 PWs)   bands (ev):

    -9.1961  -9.1794  -9.1768  -9.1360  -9.1324  -9.1138  -9.0947  -9.0943
    -9.0822  -9.0790  -6.6299  -4.8882  -4.6488  -4.6470  -0.9536  -0.6192
     0.0665   2.7520   2.7544   2.8117   2.8124   3.0965   3.0982   4.2696
     5.0117   5.0360   6.8193   7.1043   7.2600   7.3170   7.3523

          k = 0.0000 0.0000 0.3333 (  5486 PWs)   bands (ev):

    -9.1896  -9.1801  -9.1694  -9.1462  -9.1324  -9.1217  -9.0914  -9.0912
    -9.0846  -9.0820  -6.3554  -5.3950  -4.6294  -4.6287  -0.6522  -0.5246
     0.7359   2.3296   2.3337   2.5125   2.5130   2.9739   3.3932   3.3954
     4.4483   4.4588   7.0805   7.9729   8.0348   8.4694   8.5354

          k = 0.0000 0.0000-0.5000 (  5478 PWs)   bands (ev):

    -9.1832  -9.1832  -9.1587  -9.1584  -9.1291  -9.1291  -9.0880  -9.0877
    -9.0865  -9.0863  -5.9256  -5.9256  -4.6194  -4.6194  -0.5003  -0.5003
     1.7636   1.7636   2.1374   2.1374   2.3840   2.3840   3.8627   3.8627
     3.8675   3.8675   7.5456   7.5456   8.6037   8.6037   9.8019

          k = 0.0000 0.1667 0.1667 (  5465 PWs)   bands (ev):

    -9.1939  -9.1805  -9.1733  -9.1408  -9.1316  -9.1168  -9.0935  -9.0932
    -9.0827  -9.0798  -6.5381  -4.8986  -4.8244  -4.6529  -0.7643  -0.5788
     0.1866   2.2456   2.8027   2.8312   2.9691   3.0142   3.1643   3.5516
     4.7282   5.2207   7.0845   7.2415   7.4296   7.5495   7.6883

          k = 0.0000 0.1667 0.3333 (  5483 PWs)   bands (ev):

    -9.1887  -9.1815  -9.1670  -9.1496  -9.1315  -9.1238  -9.0905  -9.0904
    -9.0845  -9.0824  -6.2706  -5.3459  -4.7911  -4.6737  -0.5029  -0.4900
     0.6666   1.9070   2.2997   2.5082   2.8595   3.0842   3.1213   3.4274
     4.1356   4.7701   7.6001   7.7783   8.2741   8.2878   8.7737

          k = 0.0000 0.1667-0.5000 (  5478 PWs)   bands (ev):

    -9.1836  -9.1836  -9.1590  -9.1588  -9.1297  -9.1297  -9.0874  -9.0871
    -9.0864  -9.0861  -5.8538  -5.8538  -4.7220  -4.7220  -0.4344  -0.4344
     1.5035   1.5035   1.9353   1.9354   2.9176   2.9176   3.5422   3.5422
     4.0594   4.0594   8.0501   8.0501   8.6981   8.6982   9.3013

          k = 0.0000 0.3333 0.3333 (  5492 PWs)   bands (ev):

    -9.1863  -9.1832  -9.1633  -9.1559  -9.1309  -9.1279  -9.0884  -9.0884
    -9.0848  -9.0838  -6.0255  -5.2773  -5.1096  -4.8012  -0.3896  -0.2387
     0.6242   1.6964   1.7872   2.4741   2.5000   3.5073   3.5440   3.5557
     3.6391   4.8865   7.6544   8.2421   8.6077   8.9182   9.1125

          k = 0.0000 0.3333-0.5000 (  5452 PWs)   bands (ev):

    -9.1842  -9.1842  -9.1604  -9.1602  -9.1302  -9.1302  -9.0863  -9.0861
    -9.0860  -9.0858  -5.6532  -5.6532  -4.9835  -4.9835  -0.2478  -0.2478
     1.0121   1.0121   1.9887   1.9887   2.9116   2.9116   3.7094   3.7094
     4.3466   4.3466   8.3300   8.3300   8.7405   8.7405   9.3991

          k = 0.0000-0.5000-0.5000 (  5472 PWs)   bands (ev):

    -9.1845  -9.1845  -9.1614  -9.1612  -9.1304  -9.1304  -9.0859  -9.0859
    -9.0857  -9.0856  -5.4340  -5.4340  -5.2333  -5.2333  -0.0909  -0.0909
     0.7268   0.7268   2.3310   2.3310   2.3546   2.3546   4.2668   4.2668
     4.3164   4.3164   8.1102   8.1102   8.4072   8.4072  10.7748

          k = 0.1667 0.1667 0.1667 (  5497 PWs)   bands (ev):

    -9.1949  -9.1812  -9.1737  -9.1407  -9.1317  -9.1169  -9.0935  -9.0930
    -9.0826  -9.0799  -6.4509  -4.8849  -4.8434  -4.8116  -0.7733  -0.3402
     0.1709   2.4010   2.4150   2.4537   2.9660   3.2569   3.2587   3.2680
     4.9893   5.0023   7.0596   7.1050   7.4716   7.5152   8.5627

          k = 0.1667 0.1667 0.3333 (  5477 PWs)   bands (ev):

    -9.1895  -9.1821  -9.1671  -9.1495  -9.1316  -9.1238  -9.0903  -9.0902
    -9.0843  -9.0824  -6.1907  -5.3025  -4.8150  -4.8125  -0.5501  -0.3877
     0.5198   1.9710   2.1402   2.2036   2.9482   3.2545   3.2611   3.5416
     4.5031   4.5834   7.5242   7.5964   8.0520   8.0886   9.1082

          k = 0.1667 0.1667-0.5000 (  5464 PWs)   bands (ev):

    -9.1844  -9.1844  -9.1590  -9.1587  -9.1297  -9.1297  -9.0872  -9.0869
    -9.0863  -9.0860  -5.7877  -5.7877  -4.8000  -4.8000  -0.4507  -0.4507
     1.1773   1.1773   2.0712   2.0712   3.1763   3.1763   3.7346   3.7346
     3.9755   3.9755   7.9443   7.9443   8.9359   8.9359   9.4096

          k = 0.1667 0.3333 0.3333 (  5485 PWs)   bands (ev):

    -9.1871  -9.1839  -9.1634  -9.1559  -9.1308  -9.1279  -9.0884  -9.0882
    -9.0846  -9.0838  -5.9560  -5.2587  -5.0907  -4.8874  -0.4486  -0.4090
     0.3766   1.2601   2.1617   2.6713   2.7353   3.6580   3.6822   3.7123
     3.9999   4.7963   7.4209   7.9298   7.9384   8.4635   9.7534

          k = 0.1667 0.3333-0.5000 (  5480 PWs)   bands (ev):

    -9.1851  -9.1851  -9.1605  -9.1603  -9.1303  -9.1303  -9.0861  -9.0860
    -9.0859  -9.0858  -5.6042  -5.6042  -5.0087  -5.0087  -0.4222  -0.4222
     0.6438   0.6438   2.3897   2.3897   3.3595   3.3595   3.7931   3.7931
     4.3076   4.3076   7.9098   7.9098   8.5320   8.5320   9.5539

          k = 0.1667-0.5000-0.5000 (  5468 PWs)   bands (ev):

    -9.1853  -9.1853  -9.1614  -9.1612  -9.1304  -9.1304  -9.0859  -9.0856
    -9.0856  -9.0853  -5.4141  -5.4141  -5.2123  -5.2123  -0.3485  -0.3485
     0.3639   0.3639   2.8133   2.8133   2.8708   2.8708   4.2798   4.2798
     4.3393   4.3393   7.7862   7.7862   8.2735   8.2735  10.0082

          k = 0.3333 0.3333 0.3333 (  5478 PWs)   bands (ev):

    -9.1887  -9.1853  -9.1637  -9.1559  -9.1309  -9.1280  -9.0883  -9.0876
    -9.0842  -9.0837  -5.7639  -5.2205  -5.1157  -5.0519  -0.6988  -0.4457
     0.0053   0.5955   2.9554   3.0317   3.0947   3.8943   3.9164   3.9539
     4.5430   4.5537   6.8041   7.5360   7.9662   8.1904   9.7869

          k = 0.3333 0.3333-0.5000 (  5522 PWs)   bands (ev):

    -9.1867  -9.1867  -9.1607  -9.1605  -9.1305  -9.1305  -9.0861  -9.0858
    -9.0857  -9.0854  -5.4778  -5.4778  -5.0882  -5.0882  -0.6572  -0.6572
     0.1177   0.1177   3.1584   3.1584   3.9813   3.9813   4.0750   4.0750
     4.2280   4.2280   7.1676   7.1676   8.0838   8.0838   9.5148

          k = 0.3333-0.5000-0.5000 (  5524 PWs)   bands (ev):

    -9.1870  -9.1870  -9.1616  -9.1613  -9.1306  -9.1306  -9.0859  -9.0857
    -9.0852  -9.0849  -5.3730  -5.3730  -5.1694  -5.1694  -0.7378  -0.7377
    -0.1051  -0.1051   3.7589   3.7589   3.7987   3.7987   4.3052   4.3052
     4.3861   4.3861   6.8993   6.8993   7.6543   7.6543   9.6968

          k =-0.5000-0.5000-0.5000 (  5520 PWs)   bands (ev):

    -9.1876  -9.1876  -9.1617  -9.1615  -9.1307  -9.1307  -9.0859  -9.0856
    -9.0849  -9.0846  -5.3518  -5.3518  -5.1467  -5.1467  -0.8984  -0.8984
    -0.2867  -0.2867   4.3160   4.3160   4.3186   4.3186   4.4058   4.4058
     4.4106   4.4106   6.2469   6.2469   7.1787   7.1787   9.7558

          k = 0.1667 0.0000 0.0000 (  5486 PWs)   bands (ev):

    -9.1997  -9.1797  -9.1797  -9.1321  -9.1321  -9.1105  -9.0960  -9.0953
    -9.0812  -9.0779  -6.6326  -4.8827  -4.6468  -4.6468  -1.1040  -0.3252
    -0.0843   2.7146   2.7930   2.8125   2.8125   3.0933   3.0933   4.2630
     5.0368   5.0368   6.7078   7.2971   7.3182   7.3182   7.3645

          k = 0.3333 0.0000 0.0000 (  5486 PWs)   bands (ev):

    -9.2016  -9.1806  -9.1806  -9.1322  -9.1322  -9.1106  -9.0958  -9.0949
    -9.0810  -9.0778  -6.3702  -5.3713  -4.6284  -4.6284  -1.0070   0.0410
     0.4960   2.2606   2.4029   2.5124   2.5124   2.9896   3.3855   3.3855
     4.4673   4.4673   7.0324   8.0298   8.2516   8.5301   8.5719

          k =-0.5000 0.0000 0.0000 (  5478 PWs)   bands (ev):

    -9.2024  -9.1812  -9.1812  -9.1320  -9.1320  -9.1109  -9.0957  -9.0946
    -9.0809  -9.0778  -6.0712  -5.7688  -4.6194  -4.6194  -0.9532   0.1145
     1.2641   2.0582   2.0921   2.2138   2.3833   2.3833   3.7571   3.7571
     3.9796   3.9796   7.3414   7.7604   8.6685   8.7595   9.9004

          k = 0.1667-0.1667 0.0000 (  5465 PWs)   bands (ev):

    -9.1970  -9.1798  -9.1770  -9.1360  -9.1324  -9.1137  -9.0946  -9.0941
    -9.0820  -9.0789  -6.5405  -4.8627  -4.8571  -4.6513  -0.9254  -0.3243
     0.0885   2.2444   2.8122   2.8177   2.9868   2.9908   3.1675   3.5547
     4.7480   5.2117   7.0715   7.1664   7.4321   7.5860   7.9325

          k = 0.3333-0.1667 0.0000 (  5483 PWs)   bands (ev):

    -9.1988  -9.1808  -9.1779  -9.1360  -9.1326  -9.1139  -9.0945  -9.0936
    -9.0818  -9.0789  -6.2844  -5.3188  -4.8004  -4.6720  -0.8678   0.1335
     0.3852   1.9025   2.3018   2.5106   2.8613   3.0799   3.1245   3.4292
     4.1524   4.7765   7.5029   7.8192   8.2362   8.5810   8.6298

          k = 0.1667 0.3333 0.0000 (  5483 PWs)   bands (ev):

    -9.1905  -9.1808  -9.1695  -9.1460  -9.1325  -9.1217  -9.0912  -9.0911
    -9.0844  -9.0820  -6.2724  -5.3431  -4.7931  -4.6729  -0.6262  -0.3435
     0.6432   1.9070   2.2854   2.5066   2.8719   3.0785   3.1312   3.4261
     4.1457   4.7654   7.4957   7.9268   8.0564   8.5108   8.6536

          k =-0.5000-0.1667 0.0000 (  5478 PWs)   bands (ev):

    -9.1997  -9.1815  -9.1781  -9.1359  -9.1327  -9.1139  -9.0944  -9.0934
    -9.0816  -9.0789  -5.9938  -5.7003  -4.7462  -4.7052  -0.8385   0.1564
     1.0263   1.7815   1.8889   1.9717   2.9037   2.9378   3.4470   3.6460
     3.9827   4.1460   7.8020   8.2927   8.7749   8.9758   8.9843

          k = 0.1667-0.5000 0.0000 (  5478 PWs)   bands (ev):

    -9.1841  -9.1841  -9.1585  -9.1582  -9.1292  -9.1292  -9.0878  -9.0876
    -9.0865  -9.0862  -5.8542  -5.8542  -4.7222  -4.7222  -0.4299  -0.4299
     1.4965   1.4965   1.9325   1.9325   2.9239   2.9239   3.5455   3.5455
     4.0576   4.0576   8.0134   8.0134   8.7076   8.7076   9.3501

          k = 0.3333-0.3333 0.0000 (  5492 PWs)   bands (ev):

    -9.1923  -9.1821  -9.1699  -9.1459  -9.1327  -9.1217  -9.0910  -9.0908
    -9.0840  -9.0819  -6.0361  -5.2036  -5.1762  -4.7987  -0.5626   0.1070
     0.4392   1.7150   1.7626   2.4897   2.4900   3.5208   3.5477   3.5538
     3.6442   4.8890   7.6488   8.0263   8.9076   8.9219   9.3019

          k =-0.5000-0.3333 0.0000 (  5452 PWs)   bands (ev):

    -9.1931  -9.1825  -9.1700  -9.1458  -9.1328  -9.1217  -9.0909  -9.0904
    -9.0838  -9.0819  -5.7720  -5.5075  -5.0624  -4.9328  -0.5204   0.3248
     0.5058   1.2028   1.9846   1.9941   2.8452   2.9926   3.6919   3.7279
     4.2926   4.4104   8.2356   8.2394   8.6564   9.0027   9.3275

          k = 0.3333-0.5000 0.0000 (  5452 PWs)   bands (ev):

    -9.1856  -9.1856  -9.1584  -9.1581  -9.1293  -9.1293  -9.0874  -9.0871
    -9.0863  -9.0861  -5.6550  -5.6550  -4.9833  -4.9833  -0.2284  -0.2284
     0.9850   0.9850   1.9904   1.9905   2.9195   2.9195   3.7121   3.7121
     4.3482   4.3482   8.1889   8.1889   8.8763   8.8763   9.4338

          k =-0.5000 0.5000 0.0000 (  5472 PWs)   bands (ev):

    -9.1864  -9.1864  -9.1584  -9.1582  -9.1294  -9.1294  -9.0873  -9.0870
    -9.0863  -9.0861  -5.4397  -5.4397  -5.2295  -5.2295  -0.0508  -0.0508
     0.6784   0.6784   2.3105   2.3105   2.3855   2.3855   4.2553   4.2553
     4.3337   4.3337   7.9790   7.9790   8.5205   8.5205  10.7878

          k = 0.3333-0.1667 0.1667 (  5477 PWs)   bands (ev):

    -9.1966  -9.1822  -9.1742  -9.1408  -9.1317  -9.1169  -9.0933  -9.0925
    -9.0823  -9.0798  -6.2020  -5.2744  -4.8564  -4.7845  -0.7972   0.1280
     0.2339   2.0284   2.0849   2.1943   2.9678   3.2523   3.2630   3.5329
     4.5164   4.5873   7.4056   7.7736   7.9291   8.1659   9.1185

          k =-0.5000-0.1667 0.1667 (  5464 PWs)   bands (ev):

    -9.1974  -9.1828  -9.1746  -9.1407  -9.1317  -9.1169  -9.0933  -9.0922
    -9.0821  -9.0798  -5.9216  -5.6365  -4.8420  -4.7711  -0.8124   0.1002
     0.7469   1.4167   1.9928   2.1306   3.1667   3.1930   3.7065   3.7744
     3.8778   4.0784   7.7344   8.2380   8.7750   9.1438   9.3196

          k = 0.3333-0.3333 0.1667 (  5485 PWs)   bands (ev):

    -9.1912  -9.1835  -9.1675  -9.1495  -9.1317  -9.1239  -9.0903  -9.0898
    -9.0839  -9.0824  -5.9647  -5.1909  -5.1568  -4.8809  -0.6326  -0.0971
     0.2395   1.2696   2.1420   2.7093   2.7141   3.6590   3.6650   3.7208
     4.0195   4.7951   7.4286   7.6644   8.3126   8.3425   9.7566

          k =-0.5000-0.3333 0.1667 (  5480 PWs)   bands (ev):

    -9.1920  -9.1840  -9.1676  -9.1495  -9.1319  -9.1238  -9.0902  -9.0895
    -9.0837  -9.0824  -5.7171  -5.4591  -5.0950  -4.9552  -0.6656   0.1024
     0.1915   0.8122   2.3176   2.4547   3.3236   3.4085   3.7764   3.8092
     4.2596   4.3636   7.6867   8.1187   8.4018   8.6611   9.4482

          k = 0.3333-0.5000 0.1667 (  5480 PWs)   bands (ev):

    -9.1860  -9.1860  -9.1591  -9.1588  -9.1298  -9.1298  -9.0868  -9.0866
    -9.0862  -9.0860  -5.6054  -5.6054  -5.0085  -5.0085  -0.4103  -0.4103
     0.6309   0.6309   2.3882   2.3882   3.3622   3.3622   3.7985   3.7985
     4.3065   4.3065   7.8405   7.8405   8.6088   8.6088   9.5738

          k =-0.5000 0.5000 0.1667 (  5468 PWs)   bands (ev):

    -9.1867  -9.1867  -9.1591  -9.1588  -9.1299  -9.1299  -9.0866  -9.0864
    -9.0861  -9.0859  -5.4184  -5.4184  -5.2094  -5.2094  -0.3232  -0.3232
     0.3376   0.3376   2.7902   2.7902   2.8969   2.8969   4.2761   4.2761
     4.3481   4.3481   7.6923   7.6923   8.3671   8.3672   9.9318

          k =-0.5000-0.3333 0.3333 (  5522 PWs)   bands (ev):

    -9.1896  -9.1861  -9.1639  -9.1560  -9.1311  -9.1281  -9.0883  -9.0874
    -9.0840  -9.0838  -5.5687  -5.3305  -5.2009  -5.0322  -0.8267  -0.3473
    -0.1477   0.2427   3.0854   3.2298   3.9544   4.0139   4.0645   4.1004
     4.1533   4.2939   6.9334   7.5423   7.7499   8.2617   9.4544

          k =-0.5000 0.5000 0.3333 (  5524 PWs)   bands (ev):

    -9.1874  -9.1874  -9.1608  -9.1605  -9.1305  -9.1305  -9.0861  -9.0858
    -9.0854  -9.0852  -5.3746  -5.3746  -5.1683  -5.1683  -0.7308  -0.7307
    -0.1118  -0.1118   3.7405   3.7405   3.8167   3.8167   4.3202   4.3202
     4.3766   4.3766   6.8684   6.8684   7.6833   7.6833   9.6940

     the Fermi energy is     5.7968 ev

!    total energy              =   -1339.04776405 Ry

     total all-electron energy =    -26835.532082 Ry
     estimated scf accuracy    <          1.4E-09 Ry
     smearing contrib. (-TS)   =      -0.00000000 Ry
     internal energy E=F+TS    =   -1339.04776405 Ry

     The total energy is F=E-TS. E is the sum of the following terms:
     one-electron contribution =    -276.88891730 Ry
     hartree contribution      =     175.87317203 Ry
     xc contribution           =    -127.47274020 Ry
     ewald contribution        =    -194.57540674 Ry
     one-center paw contrib.   =    -915.98387183 Ry

     convergence has been achieved in  12 iterations

     Forces acting on atoms (cartesian axes, Ry/au):

     atom    1 type  1   force =     0.00825892   -0.00000358   -0.00000358
     atom    2 type  1   force =     0.00825892    0.00000358    0.00000358
     atom    3 type  1   force =    -0.00825892   -0.00000358    0.00000358
     atom    4 type  1   force =    -0.00825892    0.00000358   -0.00000358
     atom    5 type  2   force =     0.00000000    0.00000000    0.00000000
     atom    6 type  2   force =     0.00000000    0.00000000    0.00000000
     atom    7 type  3   force =     0.00000000    0.00000000    0.00000000
     atom    8 type  3   force =     0.00000000    0.00000000    0.00000000

     Total force =     0.016518     Total SCF correction =     0.000009


     Computing stress (Cartesian axis) and pressure

          total   stress  (Ry/bohr**3)                   (kbar)     P=      -12.54
  -0.00008720   0.00000000   0.00000000          -12.83        0.00        0.00
   0.00000000  -0.00008429   0.00000000            0.00      -12.40        0.00
   0.00000000   0.00000000  -0.00008429            0.00        0.00      -12.40


     Writing all to output data dir ./outputs/gaalas50.save/

     init_run     :      5.38s CPU      5.76s WALL (       1 calls)
     electrons    :    153.21s CPU    157.82s WALL (       1 calls)
     forces       :      1.68s CPU      1.74s WALL (       1 calls)
     stress       :      5.75s CPU     49.33s WALL (       1 calls)

     Called by init_run:
     wfcinit      :      4.05s CPU      4.32s WALL (       1 calls)
     potinit      :      0.58s CPU      0.63s WALL (       1 calls)
     hinit0       :      0.52s CPU      0.55s WALL (       1 calls)

     Called by electrons:
     c_bands      :    126.38s CPU    108.60s WALL (      13 calls)
     sum_band     :     18.72s CPU    -11.96s WALL (      13 calls)
     v_of_rho     :      0.31s CPU      0.31s WALL (      13 calls)
     newd         :      1.93s CPU      2.85s WALL (      13 calls)
     PAW_pot      :      6.54s CPU     58.73s WALL (      13 calls)
     mix_rho      :      0.07s CPU      0.07s WALL (      13 calls)

     Called by c_bands:
     init_us_2    :      1.98s CPU      2.07s WALL (    1160 calls)
     init_us_2:cp :      1.97s CPU      2.06s WALL (    1160 calls)
     cegterg      :    121.29s CPU    103.33s WALL (     520 calls)

     Called by *egterg:
     cdiaghg      :      4.77s CPU      4.88s WALL (    2470 calls)
     h_psi        :     84.06s CPU     19.30s WALL (    2550 calls)
     s_psi        :     10.71s CPU     11.04s WALL (    2550 calls)
     g_psi        :      1.16s CPU      1.18s WALL (    1990 calls)

     Called by h_psi:
     h_psi:calbec :     11.06s CPU     11.37s WALL (    2550 calls)
     vloc_psi     :     61.78s CPU     13.68s WALL (    2550 calls)
     add_vuspsi   :     10.84s CPU     -6.15s WALL (    2550 calls)

     General routines
     calbec       :     16.13s CPU     16.71s WALL (    3270 calls)
     fft          :      0.32s CPU      0.33s WALL (     169 calls)
     ffts         :      0.01s CPU      0.01s WALL (      13 calls)
     fftw         :     63.81s CPU    -16.33s WALL (  108754 calls)

     Parallel routines

     PWSCF        :   2m46.50s CPU   3m35.30s WALL


   This run was terminated on:   6:20:49  16Dec2024            

=------------------------------------------------------------------------------=
   JOB DONE.
=------------------------------------------------------------------------------=
