
     Program PWSCF v.7.0 starts on 16Dec2024 at  6:21:27 

     This program is part of the open-source Quantum ESPRESSO suite
     for quantum simulation of materials; please cite
         "P. Giannozzi et al., J. Phys.:Condens. Matter 21 395502 (2009);
         "P. Giannozzi et al., J. Phys.:Condens. Matter 29 465901 (2017);
         "P. Giannozzi et al., J. Chem. Phys. 152 154105 (2020);
          URL http://www.quantum-espresso.org", 
     in publications or presentations arising from this work. More details at
     http://www.quantum-espresso.org/quote

     Parallel version (MPI & OpenMP), running on       2 processor cores
     Number of MPI processes:                 2
     Threads/MPI process:                     1

     MPI processes distributed on     1 nodes
     R & G space division:  proc/nbgrp/npool/nimage =       2
     322 MiB available memory on the printing compute node when the environment starts

     Reading input from pw.scf.75.in

     Current dimensions of program PWSCF are:
     Max number of different atomic species (ntypx) = 10
     Max number of k-points (npk) =  40000
     Max angular momentum in pseudopotentials (lmaxx) =  4
     file Ga.pbe-dn-kjpaw_psl.1.0.0.UPF: wavefunction(s)  4S renormalized
     file Al.pbe-n-kjpaw_psl.1.0.0.UPF: wavefunction(s)  3S 3P renormalized

     IMPORTANT: XC functional enforced from input :
     Exchange-correlation= PBE
                           (   1   4   3   4   0   0   0)
     Any further DFT definition will be discarded
     Please, verify this is what you really want

     Message from routine setup:
     using ibrav=0 with symmetry is DISCOURAGED, use correct ibrav instead

     Subspace diagonalization in iterative solution of the eigenvalue problem:
     a serial algorithm will be used


     Parallelization info
     --------------------
     sticks:   dense  smooth     PW     G-vecs:    dense   smooth      PW
     Min         744     744    218                21909    21909    3465
     Max         745     745    219                21910    21910    3466
     Sum        1489    1489    437                43819    43819    6931

     Using Slab Decomposition



     bravais-lattice index     =            0
     lattice parameter (alat)  =      10.8663  a.u.
     unit-cell volume          =    1283.0421 (a.u.)^3
     number of atoms/cell      =            8
     number of atomic types    =            3
     number of electrons       =        42.00
     number of Kohn-Sham states=           25
     kinetic-energy cutoff     =      40.0000  Ry
     charge density cutoff     =     160.0000  Ry
     scf convergence threshold =      1.0E-08
     mixing beta               =       0.7000
     number of iterations used =            8  plain     mixing
     Exchange-correlation= PBE
                           (   1   4   3   4   0   0   0)

     celldm(1)=  10.866265  celldm(2)=   0.000000  celldm(3)=   0.000000
     celldm(4)=   0.000000  celldm(5)=   0.000000  celldm(6)=   0.000000

     crystal axes: (cart. coord. in units of alat)
               a(1) = (   1.000000   0.000000   0.000000 )  
               a(2) = (   0.000000   1.000000   0.000000 )  
               a(3) = (   0.000000   0.000000   1.000000 )  

     reciprocal axes: (cart. coord. in units 2 pi/alat)
               b(1) = (  1.000000  0.000000  0.000000 )  
               b(2) = (  0.000000  1.000000  0.000000 )  
               b(3) = (  0.000000  0.000000  1.000000 )  


     PseudoPot. # 1 for As read from file:
     ../Pseudopotentials/As.pbe-n-kjpaw_psl.1.0.0.UPF
     MD5 check sum: 21b474db91924651be503153fb2dbf55
     Pseudo is Projector augmented-wave + core cor, Zval =  5.0
     Generated using &quot;atomic&quot; code by A. Dal Corso  v.6.3
     Shape of augmentation charge: PSQ
     Using radial grid of 1209 points,  4 beta functions with: 
                l(1) =   0
                l(2) =   0
                l(3) =   1
                l(4) =   1
     Q(r) pseudized with 0 coefficients 


     PseudoPot. # 2 for Ga read from file:
     ../Pseudopotentials/Ga.pbe-dn-kjpaw_psl.1.0.0.UPF
     MD5 check sum: 50ce49cbf7e0a40ad8623bf41840a268
     Pseudo is Projector augmented-wave + core cor, Zval = 13.0
     Generated using &quot;atomic&quot; code by A. Dal Corso  v.6.3
     Shape of augmentation charge: PSQ
     Using radial grid of 1205 points,  6 beta functions with: 
                l(1) =   0
                l(2) =   0
                l(3) =   1
                l(4) =   1
                l(5) =   2
                l(6) =   2
     Q(r) pseudized with 0 coefficients 


     PseudoPot. # 3 for Al read from file:
     ../Pseudopotentials/Al.pbe-n-kjpaw_psl.1.0.0.UPF
     MD5 check sum: 502b6b27b9c6270cab5dd1084b96fa6d
     Pseudo is Projector augmented-wave + core cor, Zval =  3.0
     Generated using &quot;atomic&quot; code by A. Dal Corso  v.6.3
     Shape of augmentation charge: PSQ
     Using radial grid of 1135 points,  6 beta functions with: 
                l(1) =   0
                l(2) =   0
                l(3) =   1
                l(4) =   1
                l(5) =   2
                l(6) =   2
     Q(r) pseudized with 0 coefficients 


     atomic species   valence    mass     pseudopotential
        As             5.00    74.92100     As( 1.00)
        Ga            13.00    69.72300     Ga( 1.00)
        Al             3.00    26.98100     Al( 1.00)

     24 Sym. Ops. (no inversion) found



   Cartesian axes

     site n.     atom                  positions (alat units)
         1           As  tau(   1) = (   0.2500000   0.2500000   0.2500000  )
         2           As  tau(   2) = (   0.2500000   0.7500000   0.7500000  )
         3           As  tau(   3) = (   0.7500000   0.2500000   0.7500000  )
         4           As  tau(   4) = (   0.7500000   0.7500000   0.2500000  )
         5           Ga  tau(   5) = (   0.0000000   0.0000000   0.0000000  )
         6           Al  tau(   6) = (   0.0000000   0.5000000   0.5000000  )
         7           Al  tau(   7) = (   0.5000000   0.0000000   0.5000000  )
         8           Al  tau(   8) = (   0.5000000   0.5000000   0.0000000  )

     number of k points=    20  Marzari-Vanderbilt smearing, width (Ry)=  0.0050
                       cart. coord. in units 2pi/alat
        k(    1) = (   0.0000000   0.0000000   0.0000000), wk =   0.0092593
        k(    2) = (   0.0000000   0.0000000   0.1666667), wk =   0.0555556
        k(    3) = (   0.0000000   0.0000000   0.3333333), wk =   0.0555556
        k(    4) = (   0.0000000   0.0000000  -0.5000000), wk =   0.0277778
        k(    5) = (   0.0000000   0.1666667   0.1666667), wk =   0.1111111
        k(    6) = (   0.0000000   0.1666667   0.3333333), wk =   0.2222222
        k(    7) = (   0.0000000   0.1666667  -0.5000000), wk =   0.1111111
        k(    8) = (   0.0000000   0.3333333   0.3333333), wk =   0.1111111
        k(    9) = (   0.0000000   0.3333333  -0.5000000), wk =   0.1111111
        k(   10) = (   0.0000000  -0.5000000  -0.5000000), wk =   0.0277778
        k(   11) = (   0.1666667   0.1666667   0.1666667), wk =   0.0740741
        k(   12) = (   0.1666667   0.1666667   0.3333333), wk =   0.2222222
        k(   13) = (   0.1666667   0.1666667  -0.5000000), wk =   0.1111111
        k(   14) = (   0.1666667   0.3333333   0.3333333), wk =   0.2222222
        k(   15) = (   0.1666667   0.3333333  -0.5000000), wk =   0.2222222
        k(   16) = (   0.1666667  -0.5000000  -0.5000000), wk =   0.0555556
        k(   17) = (   0.3333333   0.3333333   0.3333333), wk =   0.0740741
        k(   18) = (   0.3333333   0.3333333  -0.5000000), wk =   0.1111111
        k(   19) = (   0.3333333  -0.5000000  -0.5000000), wk =   0.0555556
        k(   20) = (  -0.5000000  -0.5000000  -0.5000000), wk =   0.0092593

     Dense  grid:    43819 G-vectors     FFT dimensions: (  45,  45,  45)

     Estimated max dynamical RAM per process >     110.19 MB

     Estimated total dynamical RAM >     220.38 MB

     Check: negative core charge=   -0.000001

     Initial potential from superposition of free atoms

     starting charge      41.9892, renormalised to      42.0000
     Starting wfcs are   37 randomized atomic wfcs
     Checking if some PAW data can be deallocated... 

     total cpu time spent up to now is        3.7 secs

     per-process dynamical memory:    53.5 Mb

     Self-consistent Calculation

     iteration #  1     ecut=    40.00 Ry     beta= 0.70
     Davidson diagonalization with overlap
     ethr =  1.00E-02,  avg # of iterations =  2.6

     Threshold (ethr) on eigenvalues was too large:
     Diagonalizing with lowered threshold

     Davidson diagonalization with overlap
     ethr =  5.44E-04,  avg # of iterations =  3.3

     total cpu time spent up to now is       12.7 secs

     total energy              =   -1100.59609313 Ry
     estimated scf accuracy    <       0.23542865 Ry

     iteration #  2     ecut=    40.00 Ry     beta= 0.70
     Davidson diagonalization with overlap
     ethr =  5.61E-04,  avg # of iterations =  2.9

     total cpu time spent up to now is       18.3 secs

     total energy              =   -1100.63542189 Ry
     estimated scf accuracy    <       0.04534451 Ry

     iteration #  3     ecut=    40.00 Ry     beta= 0.70
     Davidson diagonalization with overlap
     ethr =  1.08E-04,  avg # of iterations =  4.3

     total cpu time spent up to now is        5.8 secs

     total energy              =   -1100.65097753 Ry
     estimated scf accuracy    <       0.00898330 Ry

     iteration #  4     ecut=    40.00 Ry     beta= 0.70
     Davidson diagonalization with overlap
     ethr =  2.14E-05,  avg # of iterations =  5.5

     total cpu time spent up to now is       12.2 secs

     total energy              =   -1100.65472749 Ry
     estimated scf accuracy    <       0.00426596 Ry

     iteration #  5     ecut=    40.00 Ry     beta= 0.70
     Davidson diagonalization with overlap
     ethr =  1.02E-05,  avg # of iterations =  2.0

     total cpu time spent up to now is       17.0 secs

     total energy              =   -1100.65533885 Ry
     estimated scf accuracy    <       0.00016364 Ry

     iteration #  6     ecut=    40.00 Ry     beta= 0.70
     Davidson diagonalization with overlap
     ethr =  3.90E-07,  avg # of iterations =  4.2

     total cpu time spent up to now is        5.4 secs

     total energy              =   -1100.65540168 Ry
     estimated scf accuracy    <       0.00008165 Ry

     iteration #  7     ecut=    40.00 Ry     beta= 0.70
     Davidson diagonalization with overlap
     ethr =  1.94E-07,  avg # of iterations =  1.0

     total cpu time spent up to now is       10.4 secs

     total energy              =   -1100.65539917 Ry
     estimated scf accuracy    <       0.00001308 Ry

     iteration #  8     ecut=    40.00 Ry     beta= 0.70
     Davidson diagonalization with overlap
     ethr =  3.12E-08,  avg # of iterations =  4.0

     total cpu time spent up to now is       16.3 secs

     total energy              =   -1100.65540737 Ry
     estimated scf accuracy    <       0.00001300 Ry

     iteration #  9     ecut=    40.00 Ry     beta= 0.70
     Davidson diagonalization with overlap
     ethr =  3.10E-08,  avg # of iterations =  1.0

     total cpu time spent up to now is       20.5 secs

     total energy              =   -1100.65540620 Ry
     estimated scf accuracy    <       0.00000460 Ry

     iteration # 10     ecut=    40.00 Ry     beta= 0.70
     Davidson diagonalization with overlap
     ethr =  1.09E-08,  avg # of iterations =  3.6

     total cpu time spent up to now is        8.9 secs

     total energy              =   -1100.65540744 Ry
     estimated scf accuracy    <       0.00000055 Ry

     iteration # 11     ecut=    40.00 Ry     beta= 0.70
     Davidson diagonalization with overlap
     ethr =  1.30E-09,  avg # of iterations =  2.1

     total cpu time spent up to now is       13.1 secs

     total energy              =   -1100.65540741 Ry
     estimated scf accuracy    <       0.00000023 Ry

     iteration # 12     ecut=    40.00 Ry     beta= 0.70
     Davidson diagonalization with overlap
     ethr =  5.50E-10,  avg # of iterations =  4.0

     total cpu time spent up to now is       69.6 secs

     End of self-consistent calculation

          k = 0.0000 0.0000 0.0000 (  5449 PWs)   bands (ev):

    -9.4984  -9.4984  -9.4984  -9.4309  -9.4309  -6.9485  -5.0030  -5.0030
    -5.0030  -1.2505  -0.4838  -0.4838   2.6782   2.6782   2.6782   2.6893
     2.6893   2.6893   4.8642   4.8642   4.8642   5.9791   6.3984   6.3984
     6.3984

          k = 0.0000 0.0000 0.1667 (  5486 PWs)   bands (ev):

    -9.4990  -9.4988  -9.4988  -9.4309  -9.4308  -6.8592  -5.2113  -4.9951
    -4.9951  -1.1198  -0.4246  -0.2409   2.4155   2.4573   2.5016   2.5016
     2.7810   2.7810   3.9626   4.6166   4.6166   6.4108   6.8282   6.8804
     6.8804

          k = 0.0000 0.0000 0.3333 (  5486 PWs)   bands (ev):

    -9.5000  -9.4992  -9.4992  -9.4308  -9.4304  -6.5999  -5.6762  -4.9790
    -4.9790  -0.9166  -0.2872   0.4741   1.9609   2.0326   2.2038   2.2038
     2.7135   3.0638   3.0638   4.0786   4.0786   6.7481   7.6266   7.9395
     8.0733

          k = 0.0000 0.0000-0.5000 (  5478 PWs)   bands (ev):

    -9.5006  -9.4994  -9.4994  -9.4307  -9.4303  -6.2625  -6.1045  -4.9708
    -4.9708  -0.8249  -0.2049   1.3570   1.6646   1.7596   1.8270   2.0762
     2.0762   3.4615   3.4615   3.5706   3.5706   7.1609   7.3804   8.2855
     8.4304

          k = 0.0000 0.1667 0.1667 (  5465 PWs)   bands (ev):

    -9.4995  -9.4990  -9.4989  -9.4308  -9.4306  -6.7720  -5.2050  -5.1711
    -4.9996  -0.9984  -0.2866  -0.1618   1.9264   2.4948   2.5071   2.6590
     2.6837   2.8502   3.2611   4.3491   4.7957   6.6691   6.9643   7.0024
     7.2699

          k = 0.0000 0.1667 0.3333 (  5483 PWs)   bands (ev):

    -9.5004  -9.4995  -9.4994  -9.4307  -9.4303  -6.5192  -5.6283  -5.1294
    -5.0195  -0.8243  -0.1938   0.3860   1.5786   1.9769   2.2420   2.5407
     2.7603   2.8030   3.0959   3.7835   4.3852   7.1894   7.5023   7.9571
     8.2174

          k = 0.0000 0.1667-0.5000 (  5478 PWs)   bands (ev):

    -9.5008  -9.4997  -9.4996  -9.4306  -9.4301  -6.1927  -6.0377  -5.0735
    -5.0568  -0.7568  -0.1627   1.1124   1.3886   1.5806   1.6255   2.5881
     2.6035   3.1582   3.2582   3.6678   3.7483   7.6175   7.8786   8.3669
     8.6621

          k = 0.0000 0.3333 0.3333 (  5492 PWs)   bands (ev):

    -9.5012  -9.5000  -9.4999  -9.4305  -9.4301  -6.2875  -5.5322  -5.4554
    -5.1363  -0.6548   0.0410   0.2671   1.4282   1.4726   2.1658   2.1801
     3.1811   3.2127   3.2151   3.3111   4.4996   7.3089   7.9530   8.4968
     8.5087

          k = 0.0000 0.3333-0.5000 (  5452 PWs)   bands (ev):

    -9.5015  -9.5001  -9.5000  -9.4304  -9.4298  -5.9970  -5.8494  -5.3340
    -5.2840  -0.5673   0.0018   0.6420   0.8432   1.6656   1.6729   2.5583
     2.6344   3.3637   3.3817   3.9604   4.0165   7.8508   8.2132   8.4055
     8.6680

          k = 0.0000-0.5000-0.5000 (  5472 PWs)   bands (ev):

    -9.5019  -9.5003  -9.5003  -9.4304  -9.4297  -5.7841  -5.5788  -5.5788
    -5.5747  -0.4090   0.3192   0.3653   0.3653   2.0001   2.0230   2.0230
     2.0772   3.8867   3.9507   3.9507   3.9627   7.6469   8.0765   8.0765
     8.1930

          k = 0.1667 0.1667 0.1667 (  5497 PWs)   bands (ev):

    -9.4998  -9.4993  -9.4993  -9.4306  -9.4306  -6.6870  -5.2089  -5.1595
    -5.1595  -0.9026  -0.1705  -0.1705   2.0747   2.1238   2.1238   2.6776
     2.9363   2.9437   2.9437   4.5917   4.5917   6.6568   7.0176   7.0176
     7.2161

          k = 0.1667 0.1667 0.3333 (  5477 PWs)   bands (ev):

    -9.5006  -9.4998  -9.4997  -9.4305  -9.4303  -6.4417  -5.5883  -5.1641
    -5.1355  -0.7966  -0.1989   0.2450   1.7124   1.8494   1.8526   2.6357
     2.9299   2.9333   3.2071   4.1302   4.2189   7.1332   7.5256   7.6754
     7.7051

          k = 0.1667 0.1667-0.5000 (  5464 PWs)   bands (ev):

    -9.5009  -9.5001  -9.4999  -9.4305  -9.4300  -6.1281  -5.9757  -5.1521
    -5.1232  -0.7750  -0.2192   0.8101   1.0488   1.7180   1.7796   2.8416
     2.8559   3.3863   3.4239   3.5755   3.6738   7.5451   7.8433   8.5246
     8.8213

          k = 0.1667 0.3333 0.3333 (  5485 PWs)   bands (ev):

    -9.5012  -9.5003  -9.5002  -9.4304  -9.4300  -6.2206  -5.5174  -5.4384
    -5.2150  -0.7570  -0.1389   0.0339   1.0176   1.8370   2.3862   2.4098
     3.3229   3.3331   3.3831   3.6674   4.4122   7.1759   7.5402   7.8974
     8.0154

          k = 0.1667 0.3333-0.5000 (  5480 PWs)   bands (ev):

    -9.5016  -9.5006  -9.5005  -9.4303  -9.4299  -5.9494  -5.8028  -5.3604
    -5.3075  -0.7429  -0.2195   0.2951   0.4690   2.0473   2.1134   3.0197
     3.0672   3.4437   3.4647   3.9263   3.9759   7.4810   8.0111   8.1566
     8.2587

          k = 0.1667-0.5000-0.5000 (  5468 PWs)   bands (ev):

    -9.5019  -9.5007  -9.5007  -9.4302  -9.4297  -5.7653  -5.5600  -5.5600
    -5.5569  -0.6677  -0.0044   0.0211   0.0211   2.4670   2.5463   2.5463
     2.5754   3.9043   3.9706   3.9706   3.9748   7.3454   7.9298   7.9298
     8.0277

          k = 0.3333 0.3333 0.3333 (  5478 PWs)   bands (ev):

    -9.5014  -9.5010  -9.5010  -9.4300  -9.4300  -6.0342  -5.5105  -5.4036
    -5.4036  -0.9090  -0.3209  -0.3209   0.3489   2.6541   2.7539   2.7539
     3.5497   3.5942   3.5942   4.1778   4.1778   6.6365   7.4029   7.7548
     7.7548

          k = 0.3333 0.3333-0.5000 (  5522 PWs)   bands (ev):

    -9.5018  -9.5014  -9.5013  -9.4300  -9.4298  -5.8267  -5.6786  -5.4415
    -5.3859  -0.9811  -0.4679  -0.2102  -0.0866   2.8162   2.8890   3.6324
     3.6737   3.7116   3.7490   3.8350   3.9062   6.7760   7.3629   7.6876
     7.8638

          k = 0.3333-0.5000-0.5000 (  5524 PWs)   bands (ev):

    -9.5019  -9.5017  -9.5017  -9.4299  -9.4298  -5.7265  -5.5214  -5.5214
    -5.5202  -1.0581  -0.4372  -0.4307  -0.4307   3.4093   3.4621   3.4621
     3.4868   3.9410   3.9977   4.0124   4.0124   6.4981   7.2815   7.2815
     7.3123

          k =-0.5000-0.5000-0.5000 (  5520 PWs)   bands (ev):

    -9.5020  -9.5020  -9.5020  -9.4297  -9.4297  -5.7065  -5.5013  -5.5013
    -5.5013  -1.2192  -0.6063  -0.6063  -0.6063   3.9605   3.9605   3.9605
     4.0092   4.0092   4.0523   4.0523   4.0523   5.8623   6.7951   6.7951
     6.7951

     the Fermi energy is     5.1958 ev

!    total energy              =   -1100.65540745 Ry

     total all-electron energy =    -23433.117844 Ry
     estimated scf accuracy    <          1.0E-09 Ry
     smearing contrib. (-TS)   =       0.00000000 Ry
     internal energy E=F+TS    =   -1100.65540745 Ry

     The total energy is F=E-TS. E is the sum of the following terms:
     one-electron contribution =    -140.60568734 Ry
     hartree contribution      =      96.39257974 Ry
     xc contribution           =     -91.87604162 Ry
     ewald contribution        =    -125.04651617 Ry
     one-center paw contrib.   =    -839.51974206 Ry

     convergence has been achieved in  12 iterations

     Forces acting on atoms (cartesian axes, Ry/au):

     atom    1 type  1   force =     0.00435643    0.00435643    0.00435643
     atom    2 type  1   force =     0.00435643   -0.00435643   -0.00435643
     atom    3 type  1   force =    -0.00435643    0.00435643   -0.00435643
     atom    4 type  1   force =    -0.00435643   -0.00435643    0.00435643
     atom    5 type  2   force =     0.00000000    0.00000000    0.00000000
     atom    6 type  3   force =     0.00000000    0.00000000    0.00000000
     atom    7 type  3   force =     0.00000000    0.00000000    0.00000000
     atom    8 type  3   force =     0.00000000    0.00000000    0.00000000

     Total force =     0.015091     Total SCF correction =     0.000012


     Computing stress (Cartesian axis) and pressure

          total   stress  (Ry/bohr**3)                   (kbar)     P=       -9.35
  -0.00006355   0.00000000   0.00000000           -9.35        0.00        0.00
   0.00000000  -0.00006355   0.00000000            0.00       -9.35        0.00
   0.00000000   0.00000000  -0.00006355            0.00        0.00       -9.35


     Writing all to output data dir ./outputs/gaalas75.save/

     init_run     :      3.00s CPU      3.36s WALL (       1 calls)
     electrons    :     61.76s CPU     65.88s WALL (       1 calls)
     forces       :      0.81s CPU      1.02s WALL (       1 calls)
     stress       :      3.60s CPU      3.68s WALL (       1 calls)

     Called by init_run:
     wfcinit      :      1.77s CPU      1.91s WALL (       1 calls)
     potinit      :      0.48s CPU      0.58s WALL (       1 calls)
     hinit0       :      0.54s CPU      0.59s WALL (       1 calls)

     Called by electrons:
     c_bands      :     44.47s CPU     28.87s WALL (      13 calls)
     sum_band     :      9.11s CPU    -23.75s WALL (      13 calls)
     v_of_rho     :      0.30s CPU      0.35s WALL (      13 calls)
     newd         :      2.22s CPU      2.99s WALL (      13 calls)
     PAW_pot      :      6.21s CPU     58.11s WALL (      13 calls)
     mix_rho      :      0.07s CPU      0.08s WALL (      13 calls)

     Called by c_bands:
     init_us_2    :      0.97s CPU      1.04s WALL (     580 calls)
     init_us_2:cp :      0.97s CPU      1.04s WALL (     580 calls)
     cegterg      :     42.03s CPU     26.26s WALL (     260 calls)

     Called by *egterg:
     cdiaghg      :      1.12s CPU      1.17s WALL (    1054 calls)
     h_psi        :     31.03s CPU     32.93s WALL (    1094 calls)
     s_psi        :      4.00s CPU      4.23s WALL (    1094 calls)
     g_psi        :      0.41s CPU    -17.80s WALL (     814 calls)

     Called by h_psi:
     h_psi:calbec :      4.10s CPU      4.36s WALL (    1094 calls)
     vloc_psi     :     22.74s CPU     24.14s WALL (    1094 calls)
     add_vuspsi   :      4.05s CPU      4.28s WALL (    1094 calls)

     General routines
     calbec       :      6.10s CPU      6.49s WALL (    1454 calls)
     fft          :      0.33s CPU      0.36s WALL (     169 calls)
     ffts         :      0.01s CPU      0.01s WALL (      13 calls)
     fftw         :     23.74s CPU      8.54s WALL (   41196 calls)

     Parallel routines

     PWSCF        :   1m 9.50s CPU   1m14.46s WALL


   This run was terminated on:   6:22:42  16Dec2024            

=------------------------------------------------------------------------------=
   JOB DONE.
=------------------------------------------------------------------------------=
