
     Program BANDS v.7.0 starts on  3Jan2025 at  4:48:43 

     This program is part of the open-source Quantum ESPRESSO suite
     for quantum simulation of materials; please cite
         "P. Giannozzi et al., J. Phys.:Condens. Matter 21 395502 (2009);
         "P. Giannozzi et al., J. Phys.:Condens. Matter 29 465901 (2017);
         "P. Giannozzi et al., J. Chem. Phys. 152 154105 (2020);
          URL http://www.quantum-espresso.org", 
     in publications or presentations arising from this work. More details at
     http://www.quantum-espresso.org/quote

     Parallel version (MPI & OpenMP), running on       2 processor cores
     Number of MPI processes:                 1
     Threads/MPI process:                     2

     MPI processes distributed on     1 nodes
     145 MiB available memory on the printing compute node when the environment starts


     Reading xml data from directory:

     ./outputs/alas.save/
     Message from routine volume:
     axis vectors are left-handed
     file Al.pbe-n-kjpaw_psl.1.0.0.UPF: wavefunction(s)  3S 3P renormalized

     IMPORTANT: XC functional enforced from input :
     Exchange-correlation= PBE
                           (   1   4   3   4   0   0   0)
     Any further DFT definition will be discarded
     Please, verify this is what you really want


     G-vector sticks info
     --------------------
     sticks:   dense  smooth     PW     G-vecs:    dense   smooth      PW
     Sum         793     793    241                14553    14553    2397

     Using Slab Decomposition

     Reading collected, re-writing distributed wavefunctions
     high-symmetry point:  0.5000 0.5000 0.5000   x coordinate   0.0000
     high-symmetry point:  0.0000 0.0000 0.0000   x coordinate   0.8660
     high-symmetry point:  0.0000 1.0000 0.0000   x coordinate   1.8660
     high-symmetry point:  0.0000 0.7500 0.7500   x coordinate   2.6566
     high-symmetry point:  0.0000 0.0000 0.0000   x coordinate   3.7173

     Plottable bands (eV) written to file AlAs_bands_wo_soc.dat.gnu
     Bands written to file AlAs_bands_wo_soc.dat

 **************************************************************************

                    xk=(   0.50000,   0.50000,   0.50000  )

     point group C_3v (3m)  
     there are  3 classes
     the character table:

       E     2C3   3s_v 
A_1    1.00  1.00  1.00
A_2    1.00  1.00 -1.00
E      2.00 -1.00  0.00

     the symmetry operations in each class and the name of the first element:

     E        1
                                                                 
     2C3      2    3
                                                                 
     3s_v     4    5    6
                                                                 

     Band symmetry, C_3v (3m)   point group:

     e(  1 -  1) =     -5.56715  eV     1   --> A_1  L_1       
     e(  2 -  2) =     -0.69291  eV     1   --> A_1  L_1       
     e(  3 -  4) =      4.05529  eV     2   --> E    L_3       
     e(  5 -  5) =      7.01786  eV     1   --> A_1  L_1       
     e(  6 -  7) =      9.55112  eV     2   --> E    L_3       
     e(  8 -  8) =     12.68130  eV     1   --> A_1  L_1       

 **************************************************************************

 **************************************************************************

                    xk=(   0.47500,   0.47500,   0.47500  )

     Band symmetry, C_3v (3m)   point group:

     e(  1 -  1) =     -5.58068  eV     1   --> A_1  L_1       
     e(  2 -  2) =     -0.66560  eV     1   --> A_1  L_1       
     e(  3 -  4) =      4.05901  eV     2   --> E    L_3       
     e(  5 -  5) =      7.02320  eV     1   --> A_1  L_1       
     e(  6 -  7) =      9.55657  eV     2   --> E    L_3       
     e(  8 -  8) =     12.68355  eV     1   --> A_1  L_1       

 **************************************************************************

 **************************************************************************

                    xk=(   0.45000,   0.45000,   0.45000  )

     Band symmetry, C_3v (3m)   point group:

     e(  1 -  1) =     -5.62024  eV     1   --> A_1  L_1       
     e(  2 -  2) =     -0.58476  eV     1   --> A_1  L_1       
     e(  3 -  4) =      4.07014  eV     2   --> E    L_3       
     e(  5 -  5) =      7.03918  eV     1   --> A_1  L_1       
     e(  6 -  7) =      9.57260  eV     2   --> E    L_3       
     e(  8 -  8) =     12.68864  eV     1   --> A_1  L_1       

 **************************************************************************

 **************************************************************************

                    xk=(   0.42500,   0.42500,   0.42500  )

     Band symmetry, C_3v (3m)   point group:

     e(  1 -  1) =     -5.68291  eV     1   --> A_1  L_1       
     e(  2 -  2) =     -0.45339  eV     1   --> A_1  L_1       
     e(  3 -  4) =      4.08859  eV     2   --> E    L_3       
     e(  5 -  5) =      7.06566  eV     1   --> A_1  L_1       
     e(  6 -  7) =      9.59826  eV     2   --> E    L_3       
     e(  8 -  8) =     12.69100  eV     1   --> A_1  L_1       

 **************************************************************************

 **************************************************************************

                    xk=(   0.40000,   0.40000,   0.40000  )

     Band symmetry, C_3v (3m)   point group:

     e(  1 -  1) =     -5.76457  eV     1   --> A_1  L_1       
     e(  2 -  2) =     -0.27583  eV     1   --> A_1  L_1       
     e(  3 -  4) =      4.11421  eV     2   --> E    L_3       
     e(  5 -  5) =      7.10239  eV     1   --> A_1  L_1       
     e(  6 -  7) =      9.63191  eV     2   --> E    L_3       
     e(  8 -  8) =     12.67937  eV     1   --> A_1  L_1       

 **************************************************************************

 **************************************************************************

                    xk=(   0.37500,   0.37500,   0.37500  )

     Band symmetry, C_3v (3m)   point group:

     e(  1 -  1) =     -5.86053  eV     1   --> A_1  L_1       
     e(  2 -  2) =     -0.05705  eV     1   --> A_1  L_1       
     e(  3 -  4) =      4.14679  eV     2   --> E    L_3       
     e(  5 -  5) =      7.14898  eV     1   --> A_1  L_1       
     e(  6 -  7) =      9.67106  eV     2   --> E    L_3       
     e(  8 -  8) =     12.63418  eV     1   --> A_1  L_1       

 **************************************************************************

 **************************************************************************

                    xk=(   0.35000,   0.35000,   0.35000  )

     Band symmetry, C_3v (3m)   point group:

     e(  1 -  1) =     -5.96615  eV     1   --> A_1  L_1       
     e(  2 -  2) =      0.19793  eV     1   --> A_1  L_1       
     e(  3 -  4) =      4.18601  eV     2   --> E    L_3       
     e(  5 -  5) =      7.20485  eV     1   --> A_1  L_1       
     e(  6 -  7) =      9.71225  eV     2   --> E    L_3       
     e(  8 -  8) =     12.52785  eV     1   --> A_1  L_1       

 **************************************************************************

 **************************************************************************

                    xk=(   0.32500,   0.32500,   0.32500  )

     Band symmetry, C_3v (3m)   point group:

     e(  1 -  1) =     -6.07722  eV     1   --> A_1  L_1       
     e(  2 -  2) =      0.48439  eV     1   --> A_1  L_1       
     e(  3 -  4) =      4.23147  eV     2   --> E    L_3       
     e(  5 -  5) =      7.26915  eV     1   --> A_1  L_1       
     e(  6 -  7) =      9.75093  eV     2   --> E    L_3       
     e(  8 -  8) =     12.33688  eV     1   --> A_1  L_1       

 **************************************************************************

 **************************************************************************

                    xk=(   0.30000,   0.30000,   0.30000  )

     Band symmetry, C_3v (3m)   point group:

     e(  1 -  1) =     -6.19007  eV     1   --> A_1  L_1       
     e(  2 -  2) =      0.79805  eV     1   --> A_1  L_1       
     e(  3 -  4) =      4.28262  eV     2   --> E    L_3       
     e(  5 -  5) =      7.34065  eV     1   --> A_1  L_1       
     e(  6 -  7) =      9.78148  eV     2   --> E    L_3       
     e(  8 -  8) =     12.06136  eV     1   --> A_1  L_1       

 **************************************************************************

 **************************************************************************

                    xk=(   0.27500,   0.27500,   0.27500  )

     Band symmetry, C_3v (3m)   point group:

     e(  1 -  1) =     -6.30165  eV     1   --> A_1  L_1       
     e(  2 -  2) =      1.13505  eV     1   --> A_1  L_1       
     e(  3 -  4) =      4.33879  eV     2   --> E    L_3       
     e(  5 -  5) =      7.41753  eV     1   --> A_1  L_1       
     e(  6 -  7) =      9.79759  eV     2   --> E    L_3       
     e(  8 -  8) =     11.72386  eV     1   --> A_1  L_1       

 **************************************************************************

 **************************************************************************

                    xk=(   0.25000,   0.25000,   0.25000  )

     Band symmetry, C_3v (3m)   point group:

     e(  1 -  1) =     -6.40945  eV     1   --> A_1  L_1       
     e(  2 -  2) =      1.49188  eV     1   --> A_1  L_1       
     e(  3 -  4) =      4.39911  eV     2   --> E    L_3       
     e(  5 -  5) =      7.49707  eV     1   --> A_1  L_1       
     e(  6 -  7) =      9.79330  eV     2   --> E    L_3       
     e(  8 -  8) =     11.35070  eV     1   --> A_1  L_1       

 **************************************************************************

 **************************************************************************

                    xk=(   0.22500,   0.22500,   0.22500  )

     Band symmetry, C_3v (3m)   point group:

     e(  1 -  1) =     -6.51146  eV     1   --> A_1  L_1       
     e(  2 -  2) =      1.86523  eV     1   --> A_1  L_1       
     e(  3 -  4) =      4.46249  eV     2   --> E    L_3       
     e(  5 -  5) =      7.57519  eV     1   --> A_1  L_1       
     e(  6 -  7) =      9.76453  eV     2   --> E    L_3       
     e(  8 -  8) =     10.96240  eV     1   --> A_1  L_1       

 **************************************************************************

 **************************************************************************

                    xk=(   0.20000,   0.20000,   0.20000  )

     Band symmetry, C_3v (3m)   point group:

     e(  1 -  1) =     -6.60606  eV     1   --> A_1  L_1       
     e(  2 -  2) =      2.25179  eV     1   --> A_1  L_1       
     e(  3 -  4) =      4.52762  eV     2   --> E    L_3       
     e(  5 -  5) =      7.64553  eV     1   --> A_1  L_1       
     e(  6 -  7) =      9.71076  eV     2   --> E    L_3       
     e(  8 -  8) =     10.57478  eV     1   --> A_1  L_1       

 **************************************************************************

 **************************************************************************

                    xk=(   0.17500,   0.17500,   0.17500  )

     Band symmetry, C_3v (3m)   point group:

     e(  1 -  1) =     -6.69196  eV     1   --> A_1  L_1       
     e(  2 -  2) =      2.64802  eV     1   --> A_1  L_1       
     e(  3 -  4) =      4.59291  eV     2   --> E    L_3       
     e(  5 -  5) =      7.69812  eV     1   --> A_1  L_1       
     e(  6 -  7) =      9.63566  eV     2   --> E    L_3       
     e(  8 -  8) =     10.20286  eV     1   --> A_1  L_1       

 **************************************************************************

 **************************************************************************

                    xk=(   0.15000,   0.15000,   0.15000  )

     Band symmetry, C_3v (3m)   point group:

     e(  1 -  1) =     -6.76813  eV     1   --> A_1  L_1       
     e(  2 -  2) =      3.04971  eV     1   --> A_1  L_1       
     e(  3 -  4) =      4.65647  eV     2   --> E    L_3       
     e(  5 -  5) =      7.71772  eV     1   --> A_1  L_1       
     e(  6 -  7) =      9.54633  eV     2   --> E    L_3       
     e(  8 -  8) =      9.86460  eV     1   --> A_1  L_1       

 **************************************************************************

 **************************************************************************

                    xk=(   0.12500,   0.12500,   0.12500  )

     Band symmetry, C_3v (3m)   point group:

     e(  1 -  1) =     -6.83376  eV     1   --> A_1  L_1       
     e(  2 -  2) =      3.45137  eV     1   --> A_1  L_1       
     e(  3 -  4) =      4.71619  eV     2   --> E    L_3       
     e(  5 -  5) =      7.68381  eV     1   --> A_1  L_1       
     e(  6 -  7) =      9.45156  eV     2   --> E    L_3       
     e(  8 -  8) =      9.58250  eV     1   --> A_1  L_1       

 **************************************************************************

 **************************************************************************

                    xk=(   0.10000,   0.10000,   0.10000  )

     Band symmetry, C_3v (3m)   point group:

     e(  1 -  1) =     -6.88823  eV     1   --> A_1  L_1       
     e(  2 -  2) =      3.84497  eV     1   --> A_1  L_1       
     e(  3 -  4) =      4.76973  eV     2   --> E    L_3       
     e(  5 -  5) =      7.57836  eV     1   --> A_1  L_1       
     e(  6 -  7) =      9.36027  eV     2   --> E    L_3       
     e(  8 -  8) =      9.37765  eV     1   --> A_1  L_1       

 **************************************************************************

 **************************************************************************

                    xk=(   0.07500,   0.07500,   0.07500  )

     Band symmetry, C_3v (3m)   point group:

     e(  1 -  1) =     -6.93105  eV     1   --> A_1  L_1       
     e(  2 -  2) =      4.21737  eV     1   --> A_1  L_1       
     e(  3 -  4) =      4.81469  eV     2   --> E    L_3       
     e(  5 -  5) =      7.40399  eV     1   --> A_1  L_1       
     e(  6 -  6) =      9.25450  eV     1   --> A_1  L_1       
     e(  7 -  8) =      9.28043  eV     2   --> E    L_3       

 **************************************************************************

 **************************************************************************

                    xk=(   0.05000,   0.05000,   0.05000  )

     Band symmetry, C_3v (3m)   point group:

     e(  1 -  1) =     -6.96188  eV     1   --> A_1  L_1       
     e(  2 -  2) =      4.54504  eV     1   --> A_1  L_1       
     e(  3 -  4) =      4.84879  eV     2   --> E    L_3       
     e(  5 -  5) =      7.19607  eV     1   --> A_1  L_1       
     e(  6 -  6) =      9.19465  eV     1   --> A_1  L_1       
     e(  7 -  8) =      9.21857  eV     2   --> E    L_3       

 **************************************************************************

 **************************************************************************

                    xk=(   0.02500,   0.02500,   0.02500  )

     Band symmetry, C_3v (3m)   point group:

     e(  1 -  1) =     -6.98047  eV     1   --> A_1  L_1       
     e(  2 -  2) =      4.78544  eV     1   --> A_1  L_1       
     e(  3 -  4) =      4.87010  eV     2   --> E    L_3       
     e(  5 -  5) =      7.01761  eV     1   --> A_1  L_1       
     e(  6 -  6) =      9.17160  eV     1   --> A_1  L_1       
     e(  7 -  8) =      9.17948  eV     2   --> E    L_3       

 **************************************************************************

 **************************************************************************

                    xk=(   0.00000,   0.00000,   0.00000  )

     point group T_d (-43m) 
     there are  5 classes
     the character table:

       E     8C3   3C2   6S4   6s_d 
A_1    1.00  1.00  1.00  1.00  1.00
A_2    1.00  1.00  1.00 -1.00 -1.00
E      2.00 -1.00  2.00  0.00  0.00
T_1    3.00  0.00 -1.00  1.00 -1.00
T_2    3.00  0.00 -1.00 -1.00  1.00

     the symmetry operations in each class and the name of the first element:

     E        1
                                                                 
     8C3      5    7    8    6   12    9   10   11
                                                                 
     3C2      2    3    4
                                                                 
     6S4     15   16   20   19   23   24
                                                                 
     6s_d    13   14   17   18   21   22
                                                                 

     Band symmetry, T_d (-43m)  point group:

     e(  1 -  1) =     -6.98668  eV     1   --> A_1  G_1  P_1  
     e(  2 -  4) =      4.87736  eV     3   --> T_2  G_15 P_4  
     e(  5 -  5) =      6.94467  eV     1   --> A_1  G_1  P_1  
     e(  6 -  8) =      9.16611  eV     3   --> T_2  G_15 P_4  

 **************************************************************************

 **************************************************************************

                    xk=(   0.00000,   0.05000,   0.00000  )

     point group C_2v (mm2) 
     there are  4 classes
     the character table:

       E     C2    s_v   s_v' 
A_1    1.00  1.00  1.00  1.00
A_2    1.00  1.00 -1.00 -1.00
B_1    1.00 -1.00  1.00 -1.00
B_2    1.00 -1.00 -1.00  1.00

     the symmetry operations in each class and the name of the first element:

     E        1
                                                                 
     C2       2
                                                                 
     s_v      4
                                                                 
     s_v'     3
                                                                 

     Band symmetry, C_2v (mm2)  point group:

     e(  1 -  1) =     -6.97839  eV     1   --> A_1  D_1  S_1  
     e(  2 -  2) =      4.78398  eV     1   --> A_1  D_1  S_1  
     e(  3 -  4) =      4.85300  eV     2   --> B_1  D_3  S_3  
     e(  3 -  4) =      4.85300  eV     2   --> B_2  D_4  S_4  
     e(  5 -  5) =      7.04294  eV     1   --> A_1  D_1  S_1  
     e(  6 -  6) =      9.13403  eV     1   --> A_1  D_1  S_1  
     e(  7 -  8) =      9.20331  eV     2   --> B_1  D_3  S_3  
     e(  7 -  8) =      9.20331  eV     2   --> B_2  D_4  S_4  

 **************************************************************************

 **************************************************************************

                    xk=(   0.00000,   0.10000,   0.00000  )

     Band symmetry, C_2v (mm2)  point group:

     e(  1 -  1) =     -6.95360  eV     1   --> A_1  D_1  S_1  
     e(  2 -  2) =      4.54451  eV     1   --> A_1  D_1  S_1  
     e(  3 -  4) =      4.78270  eV     2   --> B_1  D_3  S_3  
     e(  3 -  4) =      4.78270  eV     2   --> B_2  D_4  S_4  
     e(  5 -  5) =      7.29572  eV     1   --> A_1  D_1  S_1  
     e(  6 -  6) =      9.04196  eV     1   --> A_1  D_1  S_1  
     e(  7 -  8) =      9.31203  eV     2   --> B_1  D_3  S_3  
     e(  7 -  8) =      9.31203  eV     2   --> B_2  D_4  S_4  

 **************************************************************************

 **************************************************************************

                    xk=(   0.00000,   0.15000,   0.00000  )

     Band symmetry, C_2v (mm2)  point group:

     e(  1 -  1) =     -6.91246  eV     1   --> A_1  D_1  S_1  
     e(  2 -  2) =      4.22572  eV     1   --> A_1  D_1  S_1  
     e(  3 -  4) =      4.67374  eV     2   --> B_1  D_3  S_3  
     e(  3 -  4) =      4.67374  eV     2   --> B_2  D_4  S_4  
     e(  5 -  5) =      7.63173  eV     1   --> A_1  D_1  S_1  
     e(  6 -  6) =      8.90067  eV     1   --> A_1  D_1  S_1  
     e(  7 -  8) =      9.48476  eV     2   --> B_1  D_3  S_3  
     e(  7 -  8) =      9.48476  eV     2   --> B_2  D_4  S_4  

 **************************************************************************

 **************************************************************************

                    xk=(   0.00000,   0.20000,   0.00000  )

     Band symmetry, C_2v (mm2)  point group:

     e(  1 -  1) =     -6.85525  eV     1   --> A_1  D_1  S_1  
     e(  2 -  2) =      3.87025  eV     1   --> A_1  D_1  S_1  
     e(  3 -  4) =      4.53561  eV     2   --> B_1  D_3  S_3  
     e(  3 -  4) =      4.53561  eV     2   --> B_2  D_4  S_4  
     e(  5 -  5) =      7.99899  eV     1   --> A_1  D_1  S_1  
     e(  6 -  6) =      8.72358  eV     1   --> A_1  D_1  S_1  
     e(  7 -  8) =      9.71163  eV     2   --> B_1  D_3  S_3  
     e(  7 -  8) =      9.71163  eV     2   --> B_2  D_4  S_4  

 **************************************************************************

 **************************************************************************

                    xk=(   0.00000,   0.25000,   0.00000  )

     Band symmetry, C_2v (mm2)  point group:

     e(  1 -  1) =     -6.78240  eV     1   --> A_1  D_1  S_1  
     e(  2 -  2) =      3.49953  eV     1   --> A_1  D_1  S_1  
     e(  3 -  4) =      4.37786  eV     2   --> B_1  D_3  S_3  
     e(  3 -  4) =      4.37786  eV     2   --> B_2  D_4  S_4  
     e(  5 -  5) =      8.35746  eV     1   --> A_1  D_1  S_1  
     e(  6 -  6) =      8.52467  eV     1   --> A_1  D_1  S_1  
     e(  7 -  8) =      9.98261  eV     2   --> B_1  D_3  S_3  
     e(  7 -  8) =      9.98261  eV     2   --> B_2  D_4  S_4  

 **************************************************************************

 **************************************************************************

                    xk=(   0.00000,   0.30000,   0.00000  )

     Band symmetry, C_2v (mm2)  point group:

     e(  1 -  1) =     -6.69447  eV     1   --> A_1  D_1  S_1  
     e(  2 -  2) =      3.12432  eV     1   --> A_1  D_1  S_1  
     e(  3 -  4) =      4.20886  eV     2   --> B_1  D_3  S_3  
     e(  3 -  4) =      4.20886  eV     2   --> B_2  D_4  S_4  
     e(  5 -  5) =      8.30804  eV     1   --> A_1  D_1  S_1  
     e(  6 -  6) =      8.67174  eV     1   --> A_1  D_1  S_1  
     e(  7 -  8) =     10.28873  eV     2   --> B_1  D_3  S_3  
     e(  7 -  8) =     10.28873  eV     2   --> B_2  D_4  S_4  

 **************************************************************************

 **************************************************************************

                    xk=(   0.00000,   0.35000,   0.00000  )

     Band symmetry, C_2v (mm2)  point group:

     e(  1 -  1) =     -6.59218  eV     1   --> A_1  D_1  S_1  
     e(  2 -  2) =      2.75040  eV     1   --> A_1  D_1  S_1  
     e(  3 -  4) =      4.03540  eV     2   --> B_1  D_3  S_3  
     e(  3 -  4) =      4.03540  eV     2   --> B_2  D_4  S_4  
     e(  5 -  5) =      8.09022  eV     1   --> A_1  D_1  S_1  
     e(  6 -  6) =      8.87973  eV     1   --> A_1  D_1  S_1  
     e(  7 -  8) =     10.62259  eV     2   --> B_1  D_3  S_3  
     e(  7 -  8) =     10.62259  eV     2   --> B_2  D_4  S_4  

 **************************************************************************

 **************************************************************************

                    xk=(   0.00000,   0.40000,   0.00000  )

     Band symmetry, C_2v (mm2)  point group:

     e(  1 -  1) =     -6.47650  eV     1   --> A_1  D_1  S_1  
     e(  2 -  2) =      2.38126  eV     1   --> A_1  D_1  S_1  
     e(  3 -  4) =      3.86277  eV     2   --> B_1  D_3  S_3  
     e(  3 -  4) =      3.86277  eV     2   --> B_2  D_4  S_4  
     e(  5 -  5) =      7.87292  eV     1   --> A_1  D_1  S_1  
     e(  6 -  6) =      8.93704  eV     1   --> A_1  D_1  S_1  
     e(  7 -  8) =     10.97822  eV     2   --> B_1  D_3  S_3  
     e(  7 -  8) =     10.97822  eV     2   --> B_2  D_4  S_4  

 **************************************************************************

 **************************************************************************

                    xk=(   0.00000,   0.45000,   0.00000  )

     Band symmetry, C_2v (mm2)  point group:

     e(  1 -  1) =     -6.34862  eV     1   --> A_1  D_1  S_1  
     e(  2 -  2) =      2.01936  eV     1   --> A_1  D_1  S_1  
     e(  3 -  4) =      3.69506  eV     2   --> B_1  D_3  S_3  
     e(  3 -  4) =      3.69506  eV     2   --> B_2  D_4  S_4  
     e(  5 -  5) =      7.66068  eV     1   --> A_1  D_1  S_1  
     e(  6 -  6) =      8.84388  eV     1   --> A_1  D_1  S_1  
     e(  7 -  8) =     11.35092  eV     2   --> B_1  D_3  S_3  
     e(  7 -  8) =     11.35092  eV     2   --> B_2  D_4  S_4  

 **************************************************************************

 **************************************************************************

                    xk=(   0.00000,   0.50000,   0.00000  )

     Band symmetry, C_2v (mm2)  point group:

     e(  1 -  1) =     -6.21008  eV     1   --> A_1  D_1  S_1  
     e(  2 -  2) =      1.66676  eV     1   --> A_1  D_1  S_1  
     e(  3 -  4) =      3.53536  eV     2   --> B_1  D_3  S_3  
     e(  3 -  4) =      3.53536  eV     2   --> B_2  D_4  S_4  
     e(  5 -  5) =      7.45660  eV     1   --> A_1  D_1  S_1  
     e(  6 -  6) =      8.65152  eV     1   --> A_1  D_1  S_1  
     e(  7 -  8) =     11.73698  eV     2   --> B_1  D_3  S_3  
     e(  7 -  8) =     11.73698  eV     2   --> B_2  D_4  S_4  

 **************************************************************************

 **************************************************************************

                    xk=(   0.00000,   0.55000,   0.00000  )

     Band symmetry, C_2v (mm2)  point group:

     e(  1 -  1) =     -6.06282  eV     1   --> A_1  D_1  S_1  
     e(  2 -  2) =      1.32561  eV     1   --> A_1  D_1  S_1  
     e(  3 -  4) =      3.38604  eV     2   --> B_1  D_3  S_3  
     e(  3 -  4) =      3.38604  eV     2   --> B_2  D_4  S_4  
     e(  5 -  5) =      7.26295  eV     1   --> A_1  D_1  S_1  
     e(  6 -  6) =      8.41512  eV     1   --> A_1  D_1  S_1  
     e(  7 -  8) =     12.13340  eV     2   --> B_1  D_3  S_3  
     e(  7 -  8) =     12.13340  eV     2   --> B_2  D_4  S_4  

 **************************************************************************

 **************************************************************************

                    xk=(   0.00000,   0.60000,   0.00000  )

     Band symmetry, C_2v (mm2)  point group:

     e(  1 -  1) =     -5.90930  eV     1   --> A_1  D_1  S_1  
     e(  2 -  2) =      0.99841  eV     1   --> A_1  D_1  S_1  
     e(  3 -  4) =      3.24893  eV     2   --> B_1  D_3  S_3  
     e(  3 -  4) =      3.24893  eV     2   --> B_2  D_4  S_4  
     e(  5 -  5) =      7.08155  eV     1   --> A_1  D_1  S_1  
     e(  6 -  6) =      8.17105  eV     1   --> A_1  D_1  S_1  
     e(  7 -  8) =     12.53765  eV     2   --> B_1  D_3  S_3  
     e(  7 -  8) =     12.53765  eV     2   --> B_2  D_4  S_4  

 **************************************************************************

 **************************************************************************

                    xk=(   0.00000,   0.65000,   0.00000  )

     Band symmetry, C_2v (mm2)  point group:

     e(  1 -  1) =     -5.75266  eV     1   --> A_1  D_1  S_1  
     e(  2 -  2) =      0.68827  eV     1   --> A_1  D_1  S_1  
     e(  3 -  4) =      3.12543  eV     2   --> B_1  D_3  S_3  
     e(  3 -  4) =      3.12543  eV     2   --> B_2  D_4  S_4  
     e(  5 -  5) =      6.91409  eV     1   --> A_1  D_1  S_1  
     e(  6 -  6) =      7.93986  eV     1   --> A_1  D_1  S_1  
     e(  7 -  8) =     12.94737  eV     2   --> B_1  D_3  S_3  
     e(  7 -  8) =     12.94737  eV     2   --> B_2  D_4  S_4  

 **************************************************************************

 **************************************************************************

                    xk=(   0.00000,   0.70000,   0.00000  )

     Band symmetry, C_2v (mm2)  point group:

     e(  1 -  1) =     -5.59684  eV     1   --> A_1  D_1  S_1  
     e(  2 -  2) =      0.39914  eV     1   --> A_1  D_1  S_1  
     e(  3 -  4) =      3.01663  eV     2   --> B_1  D_3  S_3  
     e(  3 -  4) =      3.01663  eV     2   --> B_2  D_4  S_4  
     e(  5 -  5) =      6.76234  eV     1   --> A_1  D_1  S_1  
     e(  6 -  6) =      7.73263  eV     1   --> A_1  D_1  S_1  
     e(  7 -  8) =     13.35986  eV     2   --> B_1  D_3  S_3  
     e(  7 -  8) =     13.35986  eV     2   --> B_2  D_4  S_4  

 **************************************************************************

 **************************************************************************

                    xk=(   0.00000,   0.75000,   0.00000  )

     Band symmetry, C_2v (mm2)  point group:

     e(  1 -  1) =     -5.44678  eV     1   --> A_1  D_1  S_1  
     e(  2 -  2) =      0.13600  eV     1   --> A_1  D_1  S_1  
     e(  3 -  4) =      2.92337  eV     2   --> B_1  D_3  S_3  
     e(  3 -  4) =      2.92337  eV     2   --> B_2  D_4  S_4  
     e(  5 -  5) =      6.62834  eV     1   --> A_1  D_1  S_1  
     e(  6 -  6) =      7.55507  eV     1   --> A_1  D_1  S_1  
     e(  7 -  8) =     13.77144  eV     2   --> B_1  D_3  S_3  
     e(  7 -  8) =     13.77144  eV     2   --> B_2  D_4  S_4  

 **************************************************************************

 **************************************************************************

                    xk=(   0.00000,   0.80000,   0.00000  )

     Band symmetry, C_2v (mm2)  point group:

     e(  1 -  1) =     -5.30854  eV     1   --> A_1  D_1  S_1  
     e(  2 -  2) =     -0.09502  eV     1   --> A_1  D_1  S_1  
     e(  3 -  4) =      2.84628  eV     2   --> B_1  D_3  S_3  
     e(  3 -  4) =      2.84628  eV     2   --> B_2  D_4  S_4  
     e(  5 -  5) =      6.51433  eV     1   --> A_1  D_1  S_1  
     e(  6 -  6) =      7.40970  eV     1   --> A_1  D_1  S_1  
     e(  7 -  8) =     14.17595  eV     2   --> B_1  D_3  S_3  
     e(  7 -  8) =     14.17595  eV     2   --> B_2  D_4  S_4  

 **************************************************************************

 **************************************************************************

                    xk=(   0.00000,   0.85000,   0.00000  )

     Band symmetry, C_2v (mm2)  point group:

     e(  1 -  1) =     -5.18915  eV     1   --> A_1  D_1  S_1  
     e(  2 -  2) =     -0.28676  eV     1   --> A_1  D_1  S_1  
     e(  3 -  4) =      2.78586  eV     2   --> B_1  D_3  S_3  
     e(  3 -  4) =      2.78586  eV     2   --> B_2  D_4  S_4  
     e(  5 -  5) =      6.42264  eV     1   --> A_1  D_1  S_1  
     e(  6 -  6) =      7.29726  eV     1   --> A_1  D_1  S_1  
     e(  7 -  8) =     14.56197  eV     2   --> B_1  D_3  S_3  
     e(  7 -  8) =     14.56197  eV     2   --> B_2  D_4  S_4  

 **************************************************************************

 **************************************************************************

                    xk=(   0.00000,   0.90000,   0.00000  )

     Band symmetry, C_2v (mm2)  point group:

     e(  1 -  1) =     -5.09621  eV     1   --> A_1  D_1  S_1  
     e(  2 -  2) =     -0.43149  eV     1   --> A_1  D_1  S_1  
     e(  3 -  4) =      2.74247  eV     2   --> B_1  D_3  S_3  
     e(  3 -  4) =      2.74247  eV     2   --> B_2  D_4  S_4  
     e(  5 -  5) =      6.35542  eV     1   --> A_1  D_1  S_1  
     e(  6 -  6) =      7.21753  eV     1   --> A_1  D_1  S_1  
     e(  7 -  8) =     14.90652  eV     2   --> B_1  D_3  S_3  
     e(  7 -  8) =     14.90652  eV     2   --> B_2  D_4  S_4  

 **************************************************************************

 **************************************************************************

                    xk=(   0.00000,   0.95000,   0.00000  )

     Band symmetry, C_2v (mm2)  point group:

     e(  1 -  1) =     -5.03690  eV     1   --> A_1  D_1  S_1  
     e(  2 -  2) =     -0.52193  eV     1   --> A_1  D_1  S_1  
     e(  3 -  4) =      2.71634  eV     2   --> B_1  D_3  S_3  
     e(  3 -  4) =      2.71634  eV     2   --> B_2  D_4  S_4  
     e(  5 -  5) =      6.31436  eV     1   --> A_1  D_1  S_1  
     e(  6 -  6) =      7.17000  eV     1   --> A_1  D_1  S_1  
     e(  7 -  8) =     15.16407  eV     2   --> B_1  D_3  S_3  
     e(  7 -  8) =     15.16407  eV     2   --> B_2  D_4  S_4  

 **************************************************************************

 **************************************************************************

                    xk=(   0.00000,   1.00000,   0.00000  )

     point group D_2d (-42m)
     there are  5 classes
     the character table:

       E     2S4   C2    2C2'  2s_d 
A_1    1.00  1.00  1.00  1.00  1.00
A_2    1.00  1.00  1.00 -1.00 -1.00
B_1    1.00 -1.00  1.00  1.00 -1.00
B_2    1.00 -1.00  1.00 -1.00  1.00
E      2.00  0.00 -2.00  0.00  0.00

     the symmetry operations in each class and the name of the first element:

     E        1
                                                                 
     2S4      7    8
                                                                 
     C2       3
                                                                 
     2C2'     2    4
                                                                 
     2s_d     5    6
                                                                 

     Band symmetry, D_2d (-42m) point group:

     e(  1 -  1) =     -5.01647  eV     1   --> B_2  X_3  W_2  
     e(  2 -  2) =     -0.55274  eV     1   --> A_1  X_1  W_1  
     e(  3 -  4) =      2.70761  eV     2   --> E    X_5  W_3  
     e(  5 -  5) =      6.30055  eV     1   --> B_2  X_3  W_2  
     e(  6 -  6) =      7.15422  eV     1   --> A_1  X_1  W_1  
     e(  7 -  8) =     15.26410  eV     2   --> E    X_5  W_3  

 **************************************************************************

 **************************************************************************

                    xk=(   0.00000,   0.98750,   0.03750  )

     point group C_1 (1)    
     there are  1 classes
     the character table:

       E    
A      1.00

     the symmetry operations in each class and the name of the first element:

     E        1
                                                                 

     Band symmetry, C_1 (1)     point group:

     e(  1 -  1) =     -5.01731  eV     1   --> A              
     e(  2 -  2) =     -0.54714  eV     1   --> A              
     e(  3 -  3) =      2.69241  eV     1   --> A              
     e(  4 -  4) =      2.69622  eV     1   --> A              
     e(  5 -  5) =      6.32929  eV     1   --> A              
     e(  6 -  6) =      7.18397  eV     1   --> A              
     e(  7 -  7) =     15.17583  eV     1   --> A              
     e(  8 -  8) =     15.24872  eV     1   --> A              

 **************************************************************************

 **************************************************************************

                    xk=(   0.00000,   0.97500,   0.07500  )

     Band symmetry, C_1 (1)     point group:

     e(  1 -  1) =     -5.01979  eV     1   --> A              
     e(  2 -  2) =     -0.53062  eV     1   --> A              
     e(  3 -  3) =      2.64806  eV     1   --> A              
     e(  4 -  4) =      2.66384  eV     1   --> A              
     e(  5 -  5) =      6.41404  eV     1   --> A              
     e(  6 -  6) =      7.27178  eV     1   --> A              
     e(  7 -  7) =     14.92095  eV     1   --> A              
     e(  8 -  8) =     15.19950  eV     1   --> A              

 **************************************************************************

 **************************************************************************

                    xk=(   0.00000,   0.96250,   0.11250  )

     Band symmetry, C_1 (1)     point group:

     e(  1 -  1) =     -5.02375  eV     1   --> A              
     e(  2 -  2) =     -0.50400  eV     1   --> A              
     e(  3 -  3) =      2.57805  eV     1   --> A              
     e(  4 -  4) =      2.61529  eV     1   --> A              
     e(  5 -  5) =      6.55087  eV     1   --> A              
     e(  6 -  6) =      7.41362  eV     1   --> A              
     e(  7 -  7) =     14.53218  eV     1   --> A              
     e(  8 -  8) =     15.10491  eV     1   --> A              

 **************************************************************************

 **************************************************************************

                    xk=(   0.00000,   0.95000,   0.15000  )

     Band symmetry, C_1 (1)     point group:

     e(  1 -  1) =     -5.02899  eV     1   --> A              
     e(  2 -  2) =     -0.46867  eV     1   --> A              
     e(  3 -  3) =      2.48740  eV     1   --> A              
     e(  4 -  4) =      2.55714  eV     1   --> A              
     e(  5 -  5) =      6.73427  eV     1   --> A              
     e(  6 -  6) =      7.60395  eV     1   --> A              
     e(  7 -  7) =     14.05627  eV     1   --> A              
     e(  8 -  8) =     14.94272  eV     1   --> A              

 **************************************************************************

 **************************************************************************

                    xk=(   0.00000,   0.93750,   0.18750  )

     Band symmetry, C_1 (1)     point group:

     e(  1 -  1) =     -5.03521  eV     1   --> A              
     e(  2 -  2) =     -0.42655  eV     1   --> A              
     e(  3 -  3) =      2.38186  eV     1   --> A              
     e(  4 -  4) =      2.49649  eV     1   --> A              
     e(  5 -  5) =      6.95821  eV     1   --> A              
     e(  6 -  6) =      7.83670  eV     1   --> A              
     e(  7 -  7) =     13.53341  eV     1   --> A              
     e(  8 -  8) =     14.69880  eV     1   --> A              

 **************************************************************************

 **************************************************************************

                    xk=(   0.00000,   0.92500,   0.22500  )

     Band symmetry, C_1 (1)     point group:

     e(  1 -  1) =     -5.04208  eV     1   --> A              
     e(  2 -  2) =     -0.38009  eV     1   --> A              
     e(  3 -  3) =      2.26706  eV     1   --> A              
     e(  4 -  4) =      2.44019  eV     1   --> A              
     e(  5 -  5) =      7.21677  eV     1   --> A              
     e(  6 -  6) =      8.10604  eV     1   --> A              
     e(  7 -  7) =     12.98969  eV     1   --> A              
     e(  8 -  8) =     14.39340  eV     1   --> A              

 **************************************************************************

 **************************************************************************

                    xk=(   0.00000,   0.91250,   0.26250  )

     Band symmetry, C_1 (1)     point group:

     e(  1 -  1) =     -5.04924  eV     1   --> A              
     e(  2 -  2) =     -0.33220  eV     1   --> A              
     e(  3 -  3) =      2.14813  eV     1   --> A              
     e(  4 -  4) =      2.39445  eV     1   --> A              
     e(  5 -  5) =      7.50436  eV     1   --> A              
     e(  6 -  6) =      8.40680  eV     1   --> A              
     e(  7 -  7) =     12.44086  eV     1   --> A              
     e(  8 -  8) =     14.05731  eV     1   --> A              

 **************************************************************************

 **************************************************************************

                    xk=(   0.00000,   0.90000,   0.30000  )

     Band symmetry, C_1 (1)     point group:

     e(  1 -  1) =     -5.05632  eV     1   --> A              
     e(  2 -  2) =     -0.28605  eV     1   --> A              
     e(  3 -  3) =      2.02948  eV     1   --> A              
     e(  4 -  4) =      2.36462  eV     1   --> A              
     e(  5 -  5) =      7.81542  eV     1   --> A              
     e(  6 -  6) =      8.73447  eV     1   --> A              
     e(  7 -  7) =     11.89737  eV     1   --> A              
     e(  8 -  8) =     13.70968  eV     1   --> A              

 **************************************************************************

 **************************************************************************

                    xk=(   0.00000,   0.88750,   0.33750  )

     Band symmetry, C_1 (1)     point group:

     e(  1 -  1) =     -5.06297  eV     1   --> A              
     e(  2 -  2) =     -0.24483  eV     1   --> A              
     e(  3 -  3) =      1.91481  eV     1   --> A              
     e(  4 -  4) =      2.35504  eV     1   --> A              
     e(  5 -  5) =      8.14348  eV     1   --> A              
     e(  6 -  6) =      9.08499  eV     1   --> A              
     e(  7 -  7) =     11.36819  eV     1   --> A              
     e(  8 -  8) =     13.36068  eV     1   --> A              

 **************************************************************************

 **************************************************************************

                    xk=(  -0.00000,   0.87500,   0.37500  )

     Band symmetry, C_1 (1)     point group:

     e(  1 -  1) =     -5.06886  eV     1   --> A              
     e(  2 -  2) =     -0.21132  eV     1   --> A              
     e(  3 -  3) =      1.80718  eV     1   --> A              
     e(  4 -  4) =      2.36871  eV     1   --> A              
     e(  5 -  5) =      8.47836  eV     1   --> A              
     e(  6 -  6) =      9.45410  eV     1   --> A              
     e(  7 -  7) =     10.86549  eV     1   --> A              
     e(  8 -  8) =     13.01646  eV     1   --> A              

 **************************************************************************

 **************************************************************************

                    xk=(   0.00000,   0.86250,   0.41250  )

     Band symmetry, C_1 (1)     point group:

     e(  1 -  1) =     -5.07369  eV     1   --> A              
     e(  2 -  2) =     -0.18754  eV     1   --> A              
     e(  3 -  3) =      1.70908  eV     1   --> A              
     e(  4 -  4) =      2.40699  eV     1   --> A              
     e(  5 -  5) =      8.79598  eV     1   --> A              
     e(  6 -  6) =      9.83268  eV     1   --> A              
     e(  7 -  7) =     10.41953  eV     1   --> A              
     e(  8 -  8) =     12.68193  eV     1   --> A              

 **************************************************************************

 **************************************************************************

                    xk=(   0.00000,   0.85000,   0.45000  )

     Band symmetry, C_1 (1)     point group:

     e(  1 -  1) =     -5.07722  eV     1   --> A              
     e(  2 -  2) =     -0.17444  eV     1   --> A              
     e(  3 -  3) =      1.62253  eV     1   --> A              
     e(  4 -  4) =      2.46928  eV     1   --> A              
     e(  5 -  5) =      9.01435  eV     1   --> A              
     e(  6 -  6) =     10.03509  eV     1   --> A              
     e(  7 -  7) =     10.29345  eV     1   --> A              
     e(  8 -  8) =     12.36302  eV     1   --> A              

 **************************************************************************

 **************************************************************************

                    xk=(   0.00000,   0.83750,   0.48750  )

     Band symmetry, C_1 (1)     point group:

     e(  1 -  1) =     -5.07924  eV     1   --> A              
     e(  2 -  2) =     -0.17177  eV     1   --> A              
     e(  3 -  3) =      1.54910  eV     1   --> A              
     e(  4 -  4) =      2.55290  eV     1   --> A              
     e(  5 -  5) =      8.94487  eV     1   --> A              
     e(  6 -  6) =     10.05530  eV     1   --> A              
     e(  7 -  7) =     10.67217  eV     1   --> A              
     e(  8 -  8) =     12.07095  eV     1   --> A              

 **************************************************************************

 **************************************************************************

                    xk=(  -0.00000,   0.82500,   0.52500  )

     Band symmetry, C_1 (1)     point group:

     e(  1 -  1) =     -5.07962  eV     1   --> A              
     e(  2 -  2) =     -0.17834  eV     1   --> A              
     e(  3 -  3) =      1.49001  eV     1   --> A              
     e(  4 -  4) =      2.65303  eV     1   --> A              
     e(  5 -  5) =      8.63688  eV     1   --> A              
     e(  6 -  6) =     10.30401  eV     1   --> A              
     e(  7 -  7) =     11.06358  eV     1   --> A              
     e(  8 -  8) =     11.83966  eV     1   --> A              

 **************************************************************************

 **************************************************************************

                    xk=(  -0.00000,   0.81250,   0.56250  )

     Band symmetry, C_1 (1)     point group:

     e(  1 -  1) =     -5.07827  eV     1   --> A              
     e(  2 -  2) =     -0.19228  eV     1   --> A              
     e(  3 -  3) =      1.44611  eV     1   --> A              
     e(  4 -  4) =      2.76276  eV     1   --> A              
     e(  5 -  5) =      8.27614  eV     1   --> A              
     e(  6 -  6) =     10.56797  eV     1   --> A              
     e(  7 -  7) =     11.35472  eV     1   --> A              
     e(  8 -  8) =     11.81201  eV     1   --> A              

 **************************************************************************

 **************************************************************************

                    xk=(   0.00000,   0.80000,   0.60000  )

     Band symmetry, C_1 (1)     point group:

     e(  1 -  1) =     -5.07515  eV     1   --> A              
     e(  2 -  2) =     -0.21141  eV     1   --> A              
     e(  3 -  3) =      1.41794  eV     1   --> A              
     e(  4 -  4) =      2.87306  eV     1   --> A              
     e(  5 -  5) =      7.92963  eV     1   --> A              
     e(  6 -  6) =     10.64895  eV     1   --> A              
     e(  7 -  7) =     11.54599  eV     1   --> A              
     e(  8 -  8) =     12.12139  eV     1   --> A              

 **************************************************************************

 **************************************************************************

                    xk=(  -0.00000,   0.78750,   0.63750  )

     Band symmetry, C_1 (1)     point group:

     e(  1 -  1) =     -5.07031  eV     1   --> A              
     e(  2 -  2) =     -0.23351  eV     1   --> A              
     e(  3 -  3) =      1.40575  eV     1   --> A              
     e(  4 -  4) =      2.97269  eV     1   --> A              
     e(  5 -  5) =      7.62337  eV     1   --> A              
     e(  6 -  6) =     10.51687  eV     1   --> A              
     e(  7 -  7) =     11.87507  eV     1   --> A              
     e(  8 -  8) =     12.53515  eV     1   --> A              

 **************************************************************************

 **************************************************************************

                    xk=(   0.00000,   0.77500,   0.67500  )

     Band symmetry, C_1 (1)     point group:

     e(  1 -  1) =     -5.06384  eV     1   --> A              
     e(  2 -  2) =     -0.25654  eV     1   --> A              
     e(  3 -  3) =      1.40958  eV     1   --> A              
     e(  4 -  4) =      3.04862  eV     1   --> A              
     e(  5 -  5) =      7.37468  eV     1   --> A              
     e(  6 -  6) =     10.30617  eV     1   --> A              
     e(  7 -  7) =     12.28427  eV     1   --> A              
     e(  8 -  8) =     12.95090  eV     1   --> A              

 **************************************************************************

 **************************************************************************

                    xk=(  -0.00000,   0.76250,   0.71250  )

     Band symmetry, C_1 (1)     point group:

     e(  1 -  1) =     -5.05593  eV     1   --> A              
     e(  2 -  2) =     -0.27871  eV     1   --> A              
     e(  3 -  3) =      1.42925  eV     1   --> A              
     e(  4 -  4) =      3.08739  eV     1   --> A              
     e(  5 -  5) =      7.19827  eV     1   --> A              
     e(  6 -  6) =     10.07822  eV     1   --> A              
     e(  7 -  7) =     12.71700  eV     1   --> A              
     e(  8 -  8) =     13.26993  eV     1   --> A              

 **************************************************************************

 **************************************************************************

                    xk=(   0.00000,   0.75000,   0.75000  )

     point group C_s (m)    
     there are  2 classes
     the character table:

       E     s    
A'     1.00  1.00
A''    1.00 -1.00

     the symmetry operations in each class and the name of the first element:

     E        1
                                                                 
     s        2
                                                                 

     Band symmetry, C_s (m)     point group:

     e(  1 -  1) =     -5.04683  eV     1   --> A'             
     e(  2 -  2) =     -0.29855  eV     1   --> A'             
     e(  3 -  3) =      1.46439  eV     1   --> A'             
     e(  4 -  4) =      3.07812  eV     1   --> A''            
     e(  5 -  5) =      7.10515  eV     1   --> A'             
     e(  6 -  6) =      9.85228  eV     1   --> A'             
     e(  7 -  7) =     13.08111  eV     1   --> A''            
     e(  8 -  8) =     13.26179  eV     1   --> A'             

 **************************************************************************

 **************************************************************************

                    xk=(   0.00000,   0.71250,   0.71250  )

     Band symmetry, C_s (m)     point group:

     e(  1 -  1) =     -5.08369  eV     1   --> A'             
     e(  2 -  2) =     -0.24493  eV     1   --> A'             
     e(  3 -  3) =      1.37118  eV     1   --> A'             
     e(  4 -  4) =      3.19089  eV     1   --> A''            
     e(  5 -  5) =      7.25972  eV     1   --> A'             
     e(  6 -  6) =     10.51594  eV     1   --> A'             
     e(  7 -  7) =     12.67888  eV     1   --> A''            
     e(  8 -  8) =     12.90925  eV     1   --> A'             

 **************************************************************************

 **************************************************************************

                    xk=(   0.00000,   0.67500,   0.67500  )

     Band symmetry, C_s (m)     point group:

     e(  1 -  1) =     -5.13871  eV     1   --> A'             
     e(  2 -  2) =     -0.19127  eV     1   --> A'             
     e(  3 -  3) =      1.35037  eV     1   --> A'             
     e(  4 -  4) =      3.31510  eV     1   --> A''            
     e(  5 -  5) =      7.42689  eV     1   --> A'             
     e(  6 -  6) =     11.11331  eV     1   --> A'             
     e(  7 -  7) =     12.29387  eV     1   --> A''            
     e(  8 -  8) =     12.59357  eV     1   --> A'             

 **************************************************************************

 **************************************************************************

                    xk=(   0.00000,   0.63750,   0.63750  )

     Band symmetry, C_s (m)     point group:

     e(  1 -  1) =     -5.21386  eV     1   --> A'             
     e(  2 -  2) =     -0.12965  eV     1   --> A'             
     e(  3 -  3) =      1.39892  eV     1   --> A'             
     e(  4 -  4) =      3.44883  eV     1   --> A''            
     e(  5 -  5) =      7.60506  eV     1   --> A'             
     e(  6 -  6) =     11.43350  eV     1   --> A'             
     e(  7 -  7) =     11.92958  eV     1   --> A''            
     e(  8 -  8) =     12.27647  eV     1   --> A'             

 **************************************************************************

 **************************************************************************

                    xk=(   0.00000,   0.60000,   0.60000  )

     Band symmetry, C_s (m)     point group:

     e(  1 -  1) =     -5.30942  eV     1   --> A'             
     e(  2 -  2) =     -0.04871  eV     1   --> A'             
     e(  3 -  3) =      1.50738  eV     1   --> A'             
     e(  4 -  4) =      3.58981  eV     1   --> A''            
     e(  5 -  5) =      7.79107  eV     1   --> A'             
     e(  6 -  6) =     11.35986  eV     1   --> A'             
     e(  7 -  7) =     11.58843  eV     1   --> A''            
     e(  8 -  8) =     11.94673  eV     1   --> A'             

 **************************************************************************

 **************************************************************************

                    xk=(   0.00000,   0.56250,   0.56250  )

     Band symmetry, C_s (m)     point group:

     e(  1 -  1) =     -5.42384  eV     1   --> A'             
     e(  2 -  2) =      0.06199  eV     1   --> A'             
     e(  3 -  3) =      1.66434  eV     1   --> A'             
     e(  4 -  4) =      3.73539  eV     1   --> A''            
     e(  5 -  5) =      7.97982  eV     1   --> A'             
     e(  6 -  6) =     11.12046  eV     1   --> A'             
     e(  7 -  7) =     11.27199  eV     1   --> A''            
     e(  8 -  8) =     11.63755  eV     1   --> A'             

 **************************************************************************

 **************************************************************************

                    xk=(   0.00000,   0.52500,   0.52500  )

     Band symmetry, C_s (m)     point group:

     e(  1 -  1) =     -5.55401  eV     1   --> A'             
     e(  2 -  2) =      0.20942  eV     1   --> A'             
     e(  3 -  3) =      1.85954  eV     1   --> A'             
     e(  4 -  4) =      3.88257  eV     1   --> A''            
     e(  5 -  5) =      8.16361  eV     1   --> A'             
     e(  6 -  6) =     10.84473  eV     1   --> A'             
     e(  7 -  7) =     10.98112  eV     1   --> A''            
     e(  8 -  8) =     11.36442  eV     1   --> A'             

 **************************************************************************

 **************************************************************************

                    xk=(   0.00000,   0.48750,   0.48750  )

     Band symmetry, C_s (m)     point group:

     e(  1 -  1) =     -5.69580  eV     1   --> A'             
     e(  2 -  2) =      0.39678  eV     1   --> A'             
     e(  3 -  3) =      2.08468  eV     1   --> A'             
     e(  4 -  4) =      4.02807  eV     1   --> A''            
     e(  5 -  5) =      8.33145  eV     1   --> A'             
     e(  6 -  6) =     10.56985  eV     1   --> A'             
     e(  7 -  7) =     10.71600  eV     1   --> A''            
     e(  8 -  8) =     11.13742  eV     1   --> A'             

 **************************************************************************

 **************************************************************************

                    xk=(   0.00000,   0.45000,   0.45000  )

     Band symmetry, C_s (m)     point group:

     e(  1 -  1) =     -5.84461  eV     1   --> A'             
     e(  2 -  2) =      0.62445  eV     1   --> A'             
     e(  3 -  3) =      2.33308  eV     1   --> A'             
     e(  4 -  4) =      4.16843  eV     1   --> A''            
     e(  5 -  5) =      8.46882  eV     1   --> A'             
     e(  6 -  6) =     10.30900  eV     1   --> A'             
     e(  7 -  7) =     10.47613  eV     1   --> A''            
     e(  8 -  8) =     10.96617  eV     1   --> A'             

 **************************************************************************

 **************************************************************************

                    xk=(   0.00000,   0.41250,   0.41250  )

     Band symmetry, C_s (m)     point group:

     e(  1 -  1) =     -5.99589  eV     1   --> A'             
     e(  2 -  2) =      0.89105  eV     1   --> A'             
     e(  3 -  3) =      2.59907  eV     1   --> A'             
     e(  4 -  4) =      4.30026  eV     1   --> A''            
     e(  5 -  5) =      8.55983  eV     1   --> A'             
     e(  6 -  6) =     10.06853  eV     1   --> A'             
     e(  7 -  7) =     10.26042  eV     1   --> A''            
     e(  8 -  8) =     10.85770  eV     1   --> A'             

 **************************************************************************

 **************************************************************************

                    xk=(   0.00000,   0.37500,   0.37500  )

     Band symmetry, C_s (m)     point group:

     e(  1 -  1) =     -6.14547  eV     1   --> A'             
     e(  2 -  2) =      1.19427  eV     1   --> A'             
     e(  3 -  3) =      2.87730  eV     1   --> A'             
     e(  4 -  4) =      4.42050  eV     1   --> A''            
     e(  5 -  5) =      8.59306  eV     1   --> A'             
     e(  6 -  6) =      9.85229  eV     1   --> A'             
     e(  7 -  7) =     10.06737  eV     1   --> A''            
     e(  8 -  8) =     10.80885  eV     1   --> A'             

 **************************************************************************

 **************************************************************************

                    xk=(   0.00000,   0.33750,   0.33750  )

     Band symmetry, C_s (m)     point group:

     e(  1 -  1) =     -6.28968  eV     1   --> A'             
     e(  2 -  2) =      1.53128  eV     1   --> A'             
     e(  3 -  3) =      3.16237  eV     1   --> A'             
     e(  4 -  4) =      4.52672  eV     1   --> A''            
     e(  5 -  5) =      8.56766  eV     1   --> A'             
     e(  6 -  6) =      9.66304  eV     1   --> A'             
     e(  7 -  7) =      9.89533  eV     1   --> A''            
     e(  8 -  8) =     10.79647  eV     1   --> A'             

 **************************************************************************

 **************************************************************************

                    xk=(   0.00000,   0.30000,   0.30000  )

     Band symmetry, C_s (m)     point group:

     e(  1 -  1) =     -6.42542  eV     1   --> A'             
     e(  2 -  2) =      1.89895  eV     1   --> A'             
     e(  3 -  3) =      3.44837  eV     1   --> A'             
     e(  4 -  4) =      4.61738  eV     1   --> A''            
     e(  5 -  5) =      8.49271  eV     1   --> A'             
     e(  6 -  6) =      9.50289  eV     1   --> A'             
     e(  7 -  7) =      9.74282  eV     1   --> A''            
     e(  8 -  8) =     10.77388  eV     1   --> A'             

 **************************************************************************

 **************************************************************************

                    xk=(   0.00000,   0.26250,   0.26250  )

     Band symmetry, C_s (m)     point group:

     e(  1 -  1) =     -6.55015  eV     1   --> A'             
     e(  2 -  2) =      2.29374  eV     1   --> A'             
     e(  3 -  3) =      3.72869  eV     1   --> A'             
     e(  4 -  4) =      4.69200  eV     1   --> A''            
     e(  5 -  5) =      8.37968  eV     1   --> A'             
     e(  6 -  6) =      9.37339  eV     1   --> A'             
     e(  7 -  7) =      9.60872  eV     1   --> A''            
     e(  8 -  8) =     10.68123  eV     1   --> A'             

 **************************************************************************

 **************************************************************************

                    xk=(   0.00000,   0.22500,   0.22500  )

     Band symmetry, C_s (m)     point group:

     e(  1 -  1) =     -6.66179  eV     1   --> A'             
     e(  2 -  2) =      2.71139  eV     1   --> A'             
     e(  3 -  3) =      3.99589  eV     1   --> A'             
     e(  4 -  4) =      4.75114  eV     1   --> A''            
     e(  5 -  5) =      8.23551  eV     1   --> A'             
     e(  6 -  6) =      9.27538  eV     1   --> A'             
     e(  7 -  7) =      9.49236  eV     1   --> A''            
     e(  8 -  8) =     10.47830  eV     1   --> A'             

 **************************************************************************

 **************************************************************************

                    xk=(   0.00000,   0.18750,   0.18750  )

     Band symmetry, C_s (m)     point group:

     e(  1 -  1) =     -6.75869  eV     1   --> A'             
     e(  2 -  2) =      3.14630  eV     1   --> A'             
     e(  3 -  3) =      4.24177  eV     1   --> A'             
     e(  4 -  4) =      4.79620  eV     1   --> A''            
     e(  5 -  5) =      8.05963  eV     1   --> A'             
     e(  6 -  6) =      9.20845  eV     1   --> A'             
     e(  7 -  7) =      9.39349  eV     1   --> A''            
     e(  8 -  8) =     10.18142  eV     1   --> A'             

 **************************************************************************

 **************************************************************************

                    xk=(   0.00000,   0.15000,   0.15000  )

     Band symmetry, C_s (m)     point group:

     e(  1 -  1) =     -6.83956  eV     1   --> A'             
     e(  2 -  2) =      3.59007  eV     1   --> A'             
     e(  3 -  3) =      4.45778  eV     1   --> A'             
     e(  4 -  4) =      4.82908  eV     1   --> A''            
     e(  5 -  5) =      7.84518  eV     1   --> A'             
     e(  6 -  6) =      9.17025  eV     1   --> A'             
     e(  7 -  7) =      9.31214  eV     1   --> A''            
     e(  8 -  8) =      9.85269  eV     1   --> A'             

 **************************************************************************

 **************************************************************************

                    xk=(   0.00000,   0.11250,   0.11250  )

     Band symmetry, C_s (m)     point group:

     e(  1 -  1) =     -6.90341  eV     1   --> A'             
     e(  2 -  2) =      4.02847  eV     1   --> A'             
     e(  3 -  3) =      4.63562  eV     1   --> A'             
     e(  4 -  4) =      4.85190  eV     1   --> A''            
     e(  5 -  5) =      7.58747  eV     1   --> A'             
     e(  6 -  6) =      9.15564  eV     1   --> A'             
     e(  7 -  7) =      9.24849  eV     1   --> A''            
     e(  8 -  8) =      9.55764  eV     1   --> A'             

 **************************************************************************

 **************************************************************************

                    xk=(   0.00000,   0.07500,   0.07500  )

     Band symmetry, C_s (m)     point group:

     e(  1 -  1) =     -6.94951  eV     1   --> A'             
     e(  2 -  2) =      4.43404  eV     1   --> A'             
     e(  3 -  3) =      4.76809  eV     1   --> A'             
     e(  4 -  4) =      4.86660  eV     1   --> A''            
     e(  5 -  5) =      7.30290  eV     1   --> A'             
     e(  6 -  6) =      9.15648  eV     1   --> A'             
     e(  7 -  7) =      9.20281  eV     1   --> A''            
     e(  8 -  8) =      9.33834  eV     1   --> A'             

 **************************************************************************

 **************************************************************************

                    xk=(   0.00000,   0.03750,   0.03750  )

     Band symmetry, C_s (m)     point group:

     e(  1 -  1) =     -6.97736  eV     1   --> A'             
     e(  2 -  2) =      4.74998  eV     1   --> A'             
     e(  3 -  3) =      4.84977  eV     1   --> A'             
     e(  4 -  4) =      4.87476  eV     1   --> A''            
     e(  5 -  5) =      7.05208  eV     1   --> A'             
     e(  6 -  6) =      9.16284  eV     1   --> A'             
     e(  7 -  7) =      9.17530  eV     1   --> A''            
     e(  8 -  8) =      9.20852  eV     1   --> A'             

 **************************************************************************

 **************************************************************************

                    xk=(   0.00000,   0.00000,   0.00000  )

     point group T_d (-43m) 
     there are  5 classes
     the character table:

       E     8C3   3C2   6S4   6s_d 
A_1    1.00  1.00  1.00  1.00  1.00
A_2    1.00  1.00  1.00 -1.00 -1.00
E      2.00 -1.00  2.00  0.00  0.00
T_1    3.00  0.00 -1.00  1.00 -1.00
T_2    3.00  0.00 -1.00 -1.00  1.00

     the symmetry operations in each class and the name of the first element:

     E        1
                                                                 
     8C3      5    7    8    6   12    9   10   11
                                                                 
     3C2      2    3    4
                                                                 
     6S4     15   16   20   19   23   24
                                                                 
     6s_d    13   14   17   18   21   22
                                                                 

     Band symmetry, T_d (-43m)  point group:

     e(  1 -  1) =     -6.98668  eV     1   --> A_1  G_1  P_1  
     e(  2 -  4) =      4.87736  eV     3   --> T_2  G_15 P_4  
     e(  5 -  5) =      6.94467  eV     1   --> A_1  G_1  P_1  
     e(  6 -  8) =      9.16611  eV     3   --> T_2  G_15 P_4  

 **************************************************************************

     BANDS        :     16.95s CPU      4.62s WALL


   This run was terminated on:   4:48:48   3Jan2025            

=------------------------------------------------------------------------------=
   JOB DONE.
=------------------------------------------------------------------------------=
