
     Program BANDS v.7.0 starts on  3Jan2025 at  7: 1: 1 

     This program is part of the open-source Quantum ESPRESSO suite
     for quantum simulation of materials; please cite
         "P. Giannozzi et al., J. Phys.:Condens. Matter 21 395502 (2009);
         "P. Giannozzi et al., J. Phys.:Condens. Matter 29 465901 (2017);
         "P. Giannozzi et al., J. Chem. Phys. 152 154105 (2020);
          URL http://www.quantum-espresso.org", 
     in publications or presentations arising from this work. More details at
     http://www.quantum-espresso.org/quote

     Parallel version (MPI & OpenMP), running on       2 processor cores
     Number of MPI processes:                 1
     Threads/MPI process:                     2

     MPI processes distributed on     1 nodes
     202 MiB available memory on the printing compute node when the environment starts


     Reading xml data from directory:

     ./outputs/alas.save/
     Message from routine volume:
     axis vectors are left-handed
     file Al.rel-pbe-n-kjpaw_psl.1.0.0.UPF: wavefunction(s)  3S 3P 3P renormalized

     IMPORTANT: XC functional enforced from input :
     Exchange-correlation= PBE
                           (   1   4   3   4   0   0   0)
     Any further DFT definition will be discarded
     Please, verify this is what you really want


     G-vector sticks info
     --------------------
     sticks:   dense  smooth     PW     G-vecs:    dense   smooth      PW
     Sum         793     793    241                14553    14553    2397

     Using Slab Decomposition

     Reading collected, re-writing distributed wavefunctions
     high-symmetry point:  0.5000 0.5000 0.5000   x coordinate   0.0000
     high-symmetry point:  0.0000 0.0000 0.0000   x coordinate   0.8660
     high-symmetry point:  0.0000 1.0000 0.0000   x coordinate   1.8660
     high-symmetry point:  0.0000 0.7500 0.7500   x coordinate   2.6566
     high-symmetry point:  0.0000 0.0000 0.0000   x coordinate   3.7173

     Plottable bands (eV) written to file AlAs_bands_w_soc.dat.gnu
     Bands written to file AlAs_bands_w_soc.dat

 **************************************************************************

                    xk=(   0.50000,   0.50000,   0.50000  )

     double point group C_3v (3m)  
     there are  6 classes and  3 irreducible representations
     the character table:

       E     -E    2C3   -2C3  3s_v  -3s_v
                                          
G_4    2.00 -2.00  1.00 -1.00  0.00  0.00
G_5    1.00 -1.00 -1.00  1.00  0.00  0.00
G_6    1.00 -1.00 -1.00  1.00  0.00  0.00

     imaginary part

       E     -E    2C3   -2C3  3s_v  -3s_v
                                          
G_4    0.00  0.00  0.00  0.00  0.00  0.00
G_5    0.00  0.00  0.00  0.00  1.00 -1.00
G_6    0.00  0.00  0.00  0.00 -1.00  1.00

     the symmetry operations in each class and the name of the first element:

     E             1
                                                                 
     -E           -1
                                                                 
     2C3           2    3
                                                                 
     -2C3         -2   -3
                                                                 
     3s_v          4    5   -6
                                                                 
     -3s_v         6   -4   -5
                                                                 

     Band symmetry, C_3v (3m)   double point group:

     e(  1 -  2) =     -5.56371  eV     2   --> G_4   L_6      
     e(  3 -  4) =     -0.69414  eV     2   --> G_4   L_6      
     e(  5 -  6) =      3.96754  eV     2   --> G_4   L_6      
     e(  7 -  8) =      4.14174  eV     2   --> G_5   L_4      
     e(  7 -  8) =      4.14174  eV     2   --> G_6   L_5      
     e(  9 - 10) =      7.01932  eV     2   --> G_4   L_6      
     e( 11 - 12) =      9.53820  eV     2   --> G_4   L_6      
     e( 13 - 14) =      9.56480  eV     2   --> G_5   L_4      
     e( 13 - 14) =      9.56480  eV     2   --> G_6   L_5      
     e( 15 - 16) =     12.68092  eV     2   --> G_4   L_6      

 **************************************************************************

 **************************************************************************

                    xk=(   0.47500,   0.47500,   0.47500  )

     Band symmetry, C_3v (3m)   double point group:

     e(  1 -  2) =     -5.57726  eV     2   --> G_4   L_6      
     e(  3 -  4) =     -0.66683  eV     2   --> G_4   L_6      
     e(  5 -  6) =      3.97123  eV     2   --> G_4   L_6      
     e(  7 -  8) =      4.14549  eV     2   --> G_5   L_4      
     e(  7 -  8) =      4.14549  eV     2   --> G_6   L_5      
     e(  9 - 10) =      7.02466  eV     2   --> G_4   L_6      
     e( 11 - 12) =      9.54358  eV     2   --> G_4   L_6      
     e( 13 - 14) =      9.57032  eV     2   --> G_5   L_4      
     e( 13 - 14) =      9.57032  eV     2   --> G_6   L_5      
     e( 15 - 16) =     12.68318  eV     2   --> G_4   L_6      

 **************************************************************************

 **************************************************************************

                    xk=(   0.45000,   0.45000,   0.45000  )

     Band symmetry, C_3v (3m)   double point group:

     e(  1 -  2) =     -5.61684  eV     2   --> G_4   L_6      
     e(  3 -  4) =     -0.58598  eV     2   --> G_4   L_6      
     e(  5 -  6) =      3.98229  eV     2   --> G_4   L_6      
     e(  7 -  8) =      4.15670  eV     2   --> G_5   L_4      
     e(  7 -  8) =      4.15670  eV     2   --> G_6   L_5      
     e(  9 - 10) =      7.04064  eV     2   --> G_4   L_6      
     e( 11 - 12) =      9.55938  eV     2   --> G_4   L_6      
     e( 13 - 14) =      9.58657  eV     2   --> G_5   L_4      
     e( 13 - 14) =      9.58657  eV     2   --> G_6   L_5      
     e( 15 - 16) =     12.68827  eV     2   --> G_4   L_6      

 **************************************************************************

 **************************************************************************

                    xk=(   0.42500,   0.42500,   0.42500  )

     Band symmetry, C_3v (3m)   double point group:

     e(  1 -  2) =     -5.67958  eV     2   --> G_4   L_6      
     e(  3 -  4) =     -0.45462  eV     2   --> G_4   L_6      
     e(  5 -  6) =      4.00062  eV     2   --> G_4   L_6      
     e(  7 -  8) =      4.17531  eV     2   --> G_5   L_4      
     e(  7 -  8) =      4.17531  eV     2   --> G_6   L_5      
     e(  9 - 10) =      7.06711  eV     2   --> G_4   L_6      
     e( 11 - 12) =      9.58466  eV     2   --> G_4   L_6      
     e( 13 - 14) =      9.61260  eV     2   --> G_5   L_4      
     e( 13 - 14) =      9.61260  eV     2   --> G_6   L_5      
     e( 15 - 16) =     12.69065  eV     2   --> G_4   L_6      

 **************************************************************************

 **************************************************************************

                    xk=(   0.40000,   0.40000,   0.40000  )

     Band symmetry, C_3v (3m)   double point group:

     e(  1 -  2) =     -5.76130  eV     2   --> G_4   L_6      
     e(  3 -  4) =     -0.27708  eV     2   --> G_4   L_6      
     e(  5 -  6) =      4.02607  eV     2   --> G_4   L_6      
     e(  7 -  8) =      4.20115  eV     2   --> G_5   L_4      
     e(  7 -  8) =      4.20115  eV     2   --> G_6   L_5      
     e(  9 - 10) =      7.10384  eV     2   --> G_4   L_6      
     e( 11 - 12) =      9.61778  eV     2   --> G_4   L_6      
     e( 13 - 14) =      9.64677  eV     2   --> G_5   L_4      
     e( 13 - 14) =      9.64677  eV     2   --> G_6   L_5      
     e( 15 - 16) =     12.67907  eV     2   --> G_4   L_6      

 **************************************************************************

 **************************************************************************

                    xk=(   0.37500,   0.37500,   0.37500  )

     Band symmetry, C_3v (3m)   double point group:

     e(  1 -  2) =     -5.85733  eV     2   --> G_4   L_6      
     e(  3 -  4) =     -0.05835  eV     2   --> G_4   L_6      
     e(  5 -  6) =      4.05842  eV     2   --> G_4   L_6      
     e(  7 -  8) =      4.23402  eV     2   --> G_5   L_4      
     e(  7 -  8) =      4.23402  eV     2   --> G_6   L_5      
     e(  9 - 10) =      7.15043  eV     2   --> G_4   L_6      
     e( 11 - 12) =      9.65624  eV     2   --> G_4   L_6      
     e( 13 - 14) =      9.68660  eV     2   --> G_5   L_4      
     e( 13 - 14) =      9.68660  eV     2   --> G_6   L_5      
     e( 15 - 16) =     12.63398  eV     2   --> G_4   L_6      

 **************************************************************************

 **************************************************************************

                    xk=(   0.35000,   0.35000,   0.35000  )

     Band symmetry, C_3v (3m)   double point group:

     e(  1 -  2) =     -5.96303  eV     2   --> G_4   L_6      
     e(  3 -  4) =      0.19655  eV     2   --> G_4   L_6      
     e(  5 -  6) =      4.09736  eV     2   --> G_4   L_6      
     e(  7 -  8) =      4.27362  eV     2   --> G_5   L_4      
     e(  7 -  8) =      4.27362  eV     2   --> G_6   L_5      
     e(  9 - 10) =      7.20630  eV     2   --> G_4   L_6      
     e( 11 - 12) =      9.69659  eV     2   --> G_4   L_6      
     e( 13 - 14) =      9.72861  eV     2   --> G_5   L_4      
     e( 13 - 14) =      9.72861  eV     2   --> G_6   L_5      
     e( 15 - 16) =     12.52788  eV     2   --> G_4   L_6      

 **************************************************************************

 **************************************************************************

                    xk=(   0.32500,   0.32500,   0.32500  )

     Band symmetry, C_3v (3m)   double point group:

     e(  1 -  2) =     -6.07416  eV     2   --> G_4   L_6      
     e(  3 -  4) =      0.48288  eV     2   --> G_4   L_6      
     e(  5 -  6) =      4.14249  eV     2   --> G_4   L_6      
     e(  7 -  8) =      4.31954  eV     2   --> G_5   L_4      
     e(  7 -  8) =      4.31954  eV     2   --> G_6   L_5      
     e(  9 - 10) =      7.27061  eV     2   --> G_4   L_6      
     e( 11 - 12) =      9.73431  eV     2   --> G_4   L_6      
     e( 13 - 14) =      9.76824  eV     2   --> G_5   L_4      
     e( 13 - 14) =      9.76824  eV     2   --> G_6   L_5      
     e( 15 - 16) =     12.33733  eV     2   --> G_4   L_6      

 **************************************************************************

 **************************************************************************

                    xk=(   0.30000,   0.30000,   0.30000  )

     Band symmetry, C_3v (3m)   double point group:

     e(  1 -  2) =     -6.18707  eV     2   --> G_4   L_6      
     e(  3 -  4) =      0.79634  eV     2   --> G_4   L_6      
     e(  5 -  6) =      4.19326  eV     2   --> G_4   L_6      
     e(  7 -  8) =      4.37125  eV     2   --> G_5   L_4      
     e(  7 -  8) =      4.37125  eV     2   --> G_6   L_5      
     e(  9 - 10) =      7.34212  eV     2   --> G_4   L_6      
     e( 11 - 12) =      9.76382  eV     2   --> G_4   L_6      
     e( 13 - 14) =      9.79980  eV     2   --> G_5   L_4      
     e( 13 - 14) =      9.79980  eV     2   --> G_6   L_5      
     e( 15 - 16) =     12.06236  eV     2   --> G_4   L_6      

 **************************************************************************

 **************************************************************************

                    xk=(   0.27500,   0.27500,   0.27500  )

     Band symmetry, C_3v (3m)   double point group:

     e(  1 -  2) =     -6.29871  eV     2   --> G_4   L_6      
     e(  3 -  4) =      1.13306  eV     2   --> G_4   L_6      
     e(  5 -  6) =      4.24901  eV     2   --> G_4   L_6      
     e(  7 -  8) =      4.42809  eV     2   --> G_5   L_4      
     e(  7 -  8) =      4.42809  eV     2   --> G_6   L_5      
     e(  9 - 10) =      7.41901  eV     2   --> G_4   L_6      
     e( 11 - 12) =      9.77893  eV     2   --> G_4   L_6      
     e( 13 - 14) =      9.81691  eV     2   --> G_5   L_4      
     e( 13 - 14) =      9.81691  eV     2   --> G_6   L_5      
     e( 15 - 16) =     11.72541  eV     2   --> G_4   L_6      

 **************************************************************************

 **************************************************************************

                    xk=(   0.25000,   0.25000,   0.25000  )

     Band symmetry, C_3v (3m)   double point group:

     e(  1 -  2) =     -6.40656  eV     2   --> G_4   L_6      
     e(  3 -  4) =      1.48949  eV     2   --> G_4   L_6      
     e(  5 -  6) =      4.30890  eV     2   --> G_4   L_6      
     e(  7 -  8) =      4.48918  eV     2   --> G_5   L_4      
     e(  7 -  8) =      4.48918  eV     2   --> G_6   L_5      
     e(  9 - 10) =      7.49858  eV     2   --> G_4   L_6      
     e( 11 - 12) =      9.77381  eV     2   --> G_4   L_6      
     e( 13 - 14) =      9.81343  eV     2   --> G_5   L_4      
     e( 13 - 14) =      9.81343  eV     2   --> G_6   L_5      
     e( 15 - 16) =     11.35272  eV     2   --> G_4   L_6      

 **************************************************************************

 **************************************************************************

                    xk=(   0.22500,   0.22500,   0.22500  )

     Band symmetry, C_3v (3m)   double point group:

     e(  1 -  2) =     -6.50862  eV     2   --> G_4   L_6      
     e(  3 -  4) =      1.86228  eV     2   --> G_4   L_6      
     e(  5 -  6) =      4.37189  eV     2   --> G_4   L_6      
     e(  7 -  8) =      4.55344  eV     2   --> G_5   L_4      
     e(  7 -  8) =      4.55344  eV     2   --> G_6   L_5      
     e(  9 - 10) =      7.57675  eV     2   --> G_4   L_6      
     e( 11 - 12) =      9.74456  eV     2   --> G_4   L_6      
     e( 13 - 14) =      9.78515  eV     2   --> G_5   L_4      
     e( 13 - 14) =      9.78515  eV     2   --> G_6   L_5      
     e( 15 - 16) =     10.96479  eV     2   --> G_4   L_6      

 **************************************************************************

 **************************************************************************

                    xk=(   0.20000,   0.20000,   0.20000  )

     Band symmetry, C_3v (3m)   double point group:

     e(  1 -  2) =     -6.60326  eV     2   --> G_4   L_6      
     e(  3 -  4) =      2.24803  eV     2   --> G_4   L_6      
     e(  5 -  6) =      4.43675  eV     2   --> G_4   L_6      
     e(  7 -  8) =      4.61957  eV     2   --> G_5   L_4      
     e(  7 -  8) =      4.61957  eV     2   --> G_6   L_5      
     e(  9 - 10) =      7.64716  eV     2   --> G_4   L_6      
     e( 11 - 12) =      9.69076  eV     2   --> G_4   L_6      
     e( 13 - 14) =      9.73142  eV     2   --> G_5   L_4      
     e( 13 - 14) =      9.73142  eV     2   --> G_6   L_5      
     e( 15 - 16) =     10.57743  eV     2   --> G_4   L_6      

 **************************************************************************

 **************************************************************************

                    xk=(   0.17500,   0.17500,   0.17500  )

     Band symmetry, C_3v (3m)   double point group:

     e(  1 -  2) =     -6.68918  eV     2   --> G_4   L_6      
     e(  3 -  4) =      2.64307  eV     2   --> G_4   L_6      
     e(  5 -  6) =      4.50205  eV     2   --> G_4   L_6      
     e(  7 -  8) =      4.68594  eV     2   --> G_5   L_4      
     e(  7 -  8) =      4.68594  eV     2   --> G_6   L_5      
     e(  9 - 10) =      7.69988  eV     2   --> G_4   L_6      
     e( 11 - 12) =      9.61611  eV     2   --> G_4   L_6      
     e( 13 - 14) =      9.65589  eV     2   --> G_5   L_4      
     e( 13 - 14) =      9.65589  eV     2   --> G_6   L_5      
     e( 15 - 16) =     10.20568  eV     2   --> G_4   L_6      

 **************************************************************************

 **************************************************************************

                    xk=(   0.15000,   0.15000,   0.15000  )

     Band symmetry, C_3v (3m)   double point group:

     e(  1 -  2) =     -6.76538  eV     2   --> G_4   L_6      
     e(  3 -  4) =      3.04292  eV     2   --> G_4   L_6      
     e(  5 -  6) =      4.56621  eV     2   --> G_4   L_6      
     e(  7 -  8) =      4.75066  eV     2   --> G_5   L_4      
     e(  7 -  8) =      4.75066  eV     2   --> G_6   L_5      
     e(  9 - 10) =      7.71971  eV     2   --> G_4   L_6      
     e( 11 - 12) =      9.52755  eV     2   --> G_4   L_6      
     e( 13 - 14) =      9.56573  eV     2   --> G_5   L_4      
     e( 13 - 14) =      9.56573  eV     2   --> G_6   L_5      
     e( 15 - 16) =      9.86750  eV     2   --> G_4   L_6      

 **************************************************************************

 **************************************************************************

                    xk=(   0.12500,   0.12500,   0.12500  )

     Band symmetry, C_3v (3m)   double point group:

     e(  1 -  2) =     -6.83103  eV     2   --> G_4   L_6      
     e(  3 -  4) =      3.44150  eV     2   --> G_4   L_6      
     e(  5 -  6) =      4.62777  eV     2   --> G_4   L_6      
     e(  7 -  8) =      4.81155  eV     2   --> G_5   L_4      
     e(  7 -  8) =      4.81155  eV     2   --> G_6   L_5      
     e(  9 - 10) =      7.68616  eV     2   --> G_4   L_6      
     e( 11 - 12) =      9.43348  eV     2   --> G_4   L_6      
     e( 13 - 14) =      9.46988  eV     2   --> G_5   L_4      
     e( 13 - 14) =      9.46988  eV     2   --> G_6   L_5      
     e( 15 - 16) =      9.58566  eV     2   --> G_4   L_6      

 **************************************************************************

 **************************************************************************

                    xk=(   0.10000,   0.10000,   0.10000  )

     Band symmetry, C_3v (3m)   double point group:

     e(  1 -  2) =     -6.88552  eV     2   --> G_4   L_6      
     e(  3 -  4) =      3.82935  eV     2   --> G_4   L_6      
     e(  5 -  6) =      4.68590  eV     2   --> G_4   L_6      
     e(  7 -  8) =      4.86623  eV     2   --> G_5   L_4      
     e(  7 -  8) =      4.86623  eV     2   --> G_6   L_5      
     e(  9 - 10) =      7.58114  eV     2   --> G_4   L_6      
     e( 11 - 12) =      9.34021  eV     2   --> G_4   L_6      
     e( 13 - 14) =      9.37741  eV     2   --> G_5   L_4      
     e( 13 - 14) =      9.37741  eV     2   --> G_6   L_5      
     e( 15 - 16) =      9.38368  eV     2   --> G_4   L_6      

 **************************************************************************

 **************************************************************************

                    xk=(   0.07500,   0.07500,   0.07500  )

     Band symmetry, C_3v (3m)   double point group:

     e(  1 -  2) =     -6.92835  eV     2   --> G_4   L_6      
     e(  3 -  4) =      4.18896  eV     2   --> G_4   L_6      
     e(  5 -  6) =      4.74271  eV     2   --> G_4   L_6      
     e(  7 -  8) =      4.91221  eV     2   --> G_5   L_4      
     e(  7 -  8) =      4.91221  eV     2   --> G_6   L_5      
     e(  9 - 10) =      7.40710  eV     2   --> G_4   L_6      
     e( 11 - 12) =      9.24522  eV     2   --> G_4   L_6      
     e( 13 - 14) =      9.27647  eV     2   --> G_4   L_6      
     e( 15 - 16) =      9.29646  eV     2   --> G_5   L_4      
     e( 15 - 16) =      9.29646  eV     2   --> G_6   L_5      

 **************************************************************************

 **************************************************************************

                    xk=(   0.05000,   0.05000,   0.05000  )

     Band symmetry, C_3v (3m)   double point group:

     e(  1 -  2) =     -6.95919  eV     2   --> G_4   L_6      
     e(  3 -  4) =      4.48143  eV     2   --> G_4   L_6      
     e(  5 -  6) =      4.81145  eV     2   --> G_4   L_6      
     e(  7 -  8) =      4.94712  eV     2   --> G_5   L_4      
     e(  7 -  8) =      4.94712  eV     2   --> G_6   L_5      
     e(  9 - 10) =      7.19922  eV     2   --> G_4   L_6      
     e( 11 - 12) =      9.18276  eV     2   --> G_4   L_6      
     e( 13 - 14) =      9.21790  eV     2   --> G_4   L_6      
     e( 15 - 16) =      9.23368  eV     2   --> G_5   L_4      
     e( 15 - 16) =      9.23368  eV     2   --> G_6   L_5      

 **************************************************************************

 **************************************************************************

                    xk=(   0.02500,   0.02500,   0.02500  )

     Band symmetry, C_3v (3m)   double point group:

     e(  1 -  2) =     -6.97778  eV     2   --> G_4   L_6      
     e(  3 -  4) =      4.63954  eV     2   --> G_4   L_6      
     e(  5 -  6) =      4.91496  eV     2   --> G_4   L_6      
     e(  7 -  8) =      4.96896  eV     2   --> G_5   L_4      
     e(  7 -  8) =      4.96896  eV     2   --> G_6   L_5      
     e(  9 - 10) =      7.02050  eV     2   --> G_4   L_6      
     e( 11 - 12) =      9.15073  eV     2   --> G_4   L_6      
     e( 13 - 14) =      9.18825  eV     2   --> G_4   L_6      
     e( 15 - 16) =      9.19398  eV     2   --> G_5   L_4      
     e( 15 - 16) =      9.19398  eV     2   --> G_6   L_5      

 **************************************************************************

 **************************************************************************

                    xk=(   0.00000,   0.00000,   0.00000  )

     double point group T_d (-43m) 
     there are  8 classes and  3 irreducible representations
     the character table:

       E     -E    8C3   -8C3   3C2  6S4   -6S4  6s_d 
                               -3C2              -6s_d
G_6    2.00 -2.00  1.00 -1.00  0.00  1.41 -1.41  0.00
G_7    2.00 -2.00  1.00 -1.00  0.00 -1.41  1.41  0.00
G_8    4.00 -4.00 -1.00  1.00  0.00  0.00  0.00  0.00

     the symmetry operations in each class and the name of the first element:

     E             1
                                                                 
     -E           -1
                                                                 
     8C3           5    7    8    6   12    9   10   11
                                                                 
     -8C3         -5   -7   -8   -6  -12   -9  -10  -11
                                                                 
      3C2 -3C2     2   -2    3   -3    4   -4
                                                                 
     6S4          15   16   20   19   23   24
                                                                 
     -6S4        -15  -16  -20  -19  -23  -24
                                                                 
     6s_d -6s_d   13  -13  -14   14   17  -17  -18   18   21  -21   22  -22
                                                                 

     Band symmetry, T_d (-43m)  double point group:

     e(  1 -  2) =     -6.98400  eV     2   --> G_6  P_6       
     e(  3 -  4) =      4.67736  eV     2   --> G_7  P_7       
     e(  5 -  8) =      4.97640  eV     4   --> G_8  P_8       
     e(  9 - 10) =      6.94734  eV     2   --> G_6  P_6       
     e( 11 - 12) =      9.13989  eV     2   --> G_7  P_7       
     e( 13 - 16) =      9.18041  eV     4   --> G_8  P_8       

 **************************************************************************

 **************************************************************************

                    xk=(   0.00000,   0.05000,   0.00000  )

     double point group C_2v (mm2) 
     there are  5 classes and  1 irreducible representations
     the character table:

       E     -E     C2    s_v   s_v'
                   -C2   -s_v  -s_v'
G_5    2.00 -2.00  0.00  0.00  0.00

     the symmetry operations in each class and the name of the first element:

     E             1
                                                                 
     -E           -1
                                                                 
      C2  -C2      2   -2
                                                                 
      s_v -s_v     4   -4
                                                                 
      s_v'-s_v'    3   -3
                                                                 

     Band symmetry, C_2v (mm2)  double point group:

     e(  1 -  2) =     -6.97571  eV     2   --> G_5  D_5       
     e(  3 -  4) =      4.63064  eV     2   --> G_5  D_5       
     e(  5 -  6) =      4.90589  eV     2   --> G_5  D_5       
     e(  7 -  8) =      4.95119  eV     2   --> G_5  D_5       
     e(  9 - 10) =      7.04589  eV     2   --> G_5  D_5       
     e( 11 - 12) =      9.12902  eV     2   --> G_5  D_5       
     e( 13 - 14) =      9.19701  eV     2   --> G_5  D_5       
     e( 15 - 16) =      9.21703  eV     2   --> G_5  D_5       

 **************************************************************************

 **************************************************************************

                    xk=(   0.00000,   0.10000,   0.00000  )

     Band symmetry, C_2v (mm2)  double point group:

     e(  1 -  2) =     -6.95091  eV     2   --> G_5  D_5       
     e(  3 -  4) =      4.46848  eV     2   --> G_5  D_5       
     e(  5 -  6) =      4.76011  eV     2   --> G_5  D_5       
     e(  7 -  8) =      4.87854  eV     2   --> G_5  D_5       
     e(  9 - 10) =      7.29900  eV     2   --> G_5  D_5       
     e( 11 - 12) =      9.04140  eV     2   --> G_5  D_5       
     e( 13 - 14) =      9.30282  eV     2   --> G_5  D_5       
     e( 15 - 16) =      9.32438  eV     2   --> G_5  D_5       

 **************************************************************************

 **************************************************************************

                    xk=(   0.00000,   0.15000,   0.00000  )

     Band symmetry, C_2v (mm2)  double point group:

     e(  1 -  2) =     -6.90976  eV     2   --> G_5  D_5       
     e(  3 -  4) =      4.18944  eV     2   --> G_5  D_5       
     e(  5 -  6) =      4.61449  eV     2   --> G_5  D_5       
     e(  7 -  8) =      4.76624  eV     2   --> G_5  D_5       
     e(  9 - 10) =      7.63494  eV     2   --> G_5  D_5       
     e( 11 - 12) =      8.90085  eV     2   --> G_5  D_5       
     e( 13 - 14) =      9.47627  eV     2   --> G_5  D_5       
     e( 15 - 16) =      9.49587  eV     2   --> G_5  D_5       

 **************************************************************************

 **************************************************************************

                    xk=(   0.00000,   0.20000,   0.00000  )

     Band symmetry, C_2v (mm2)  double point group:

     e(  1 -  2) =     -6.85254  eV     2   --> G_5  D_5       
     e(  3 -  4) =      3.84977  eV     2   --> G_5  D_5       
     e(  5 -  6) =      4.46432  eV     2   --> G_5  D_5       
     e(  7 -  8) =      4.62435  eV     2   --> G_5  D_5       
     e(  9 - 10) =      8.00181  eV     2   --> G_5  D_5       
     e( 11 - 12) =      8.72400  eV     2   --> G_5  D_5       
     e( 13 - 14) =      9.70312  eV     2   --> G_5  D_5       
     e( 15 - 16) =      9.72280  eV     2   --> G_5  D_5       

 **************************************************************************

 **************************************************************************

                    xk=(   0.00000,   0.25000,   0.00000  )

     Band symmetry, C_2v (mm2)  double point group:

     e(  1 -  2) =     -6.77966  eV     2   --> G_5  D_5       
     e(  3 -  4) =      3.48638  eV     2   --> G_5  D_5       
     e(  5 -  6) =      4.30316  eV     2   --> G_5  D_5       
     e(  7 -  8) =      4.46282  eV     2   --> G_5  D_5       
     e(  9 - 10) =      8.35962  eV     2   --> G_5  D_5       
     e( 11 - 12) =      8.52525  eV     2   --> G_5  D_5       
     e( 13 - 14) =      9.97254  eV     2   --> G_5  D_5       
     e( 15 - 16) =      9.99550  eV     2   --> G_5  D_5       

 **************************************************************************

 **************************************************************************

                    xk=(   0.00000,   0.30000,   0.00000  )

     Band symmetry, C_2v (mm2)  double point group:

     e(  1 -  2) =     -6.69170  eV     2   --> G_5  D_5       
     e(  3 -  4) =      3.11516  eV     2   --> G_5  D_5       
     e(  5 -  6) =      4.13390  eV     2   --> G_5  D_5       
     e(  7 -  8) =      4.29027  eV     2   --> G_5  D_5       
     e(  9 - 10) =      8.30855  eV     2   --> G_5  D_5       
     e( 11 - 12) =      8.67336  eV     2   --> G_5  D_5       
     e( 13 - 14) =     10.27600  eV     2   --> G_5  D_5       
     e( 15 - 16) =     10.30440  eV     2   --> G_5  D_5       

 **************************************************************************

 **************************************************************************

                    xk=(   0.00000,   0.35000,   0.00000  )

     Band symmetry, C_2v (mm2)  double point group:

     e(  1 -  2) =     -6.58937  eV     2   --> G_5  D_5       
     e(  3 -  4) =      2.74368  eV     2   --> G_5  D_5       
     e(  5 -  6) =      3.96140  eV     2   --> G_5  D_5       
     e(  7 -  8) =      4.11360  eV     2   --> G_5  D_5       
     e(  9 - 10) =      8.09075  eV     2   --> G_5  D_5       
     e( 11 - 12) =      8.88081  eV     2   --> G_5  D_5       
     e( 13 - 14) =     10.60638  eV     2   --> G_5  D_5       
     e( 15 - 16) =     10.64145  eV     2   --> G_5  D_5       

 **************************************************************************

 **************************************************************************

                    xk=(   0.00000,   0.40000,   0.00000  )

     Band symmetry, C_2v (mm2)  double point group:

     e(  1 -  2) =     -6.47365  eV     2   --> G_5  D_5       
     e(  3 -  4) =      2.37614  eV     2   --> G_5  D_5       
     e(  5 -  6) =      3.79019  eV     2   --> G_5  D_5       
     e(  7 -  8) =      3.93816  eV     2   --> G_5  D_5       
     e(  9 - 10) =      7.87346  eV     2   --> G_5  D_5       
     e( 11 - 12) =      8.93780  eV     2   --> G_5  D_5       
     e( 13 - 14) =     10.95765  eV     2   --> G_5  D_5       
     e( 15 - 16) =     11.00032  eV     2   --> G_5  D_5       

 **************************************************************************

 **************************************************************************

                    xk=(   0.00000,   0.45000,   0.00000  )

     Band symmetry, C_2v (mm2)  double point group:

     e(  1 -  2) =     -6.34572  eV     2   --> G_5  D_5       
     e(  3 -  4) =      2.01534  eV     2   --> G_5  D_5       
     e(  5 -  6) =      3.62398  eV     2   --> G_5  D_5       
     e(  7 -  8) =      3.76799  eV     2   --> G_5  D_5       
     e(  9 - 10) =      7.66122  eV     2   --> G_5  D_5       
     e( 11 - 12) =      8.84452  eV     2   --> G_5  D_5       
     e( 13 - 14) =     11.32526  eV     2   --> G_5  D_5       
     e( 15 - 16) =     11.37617  eV     2   --> G_5  D_5       

 **************************************************************************

 **************************************************************************

                    xk=(   0.00000,   0.50000,   0.00000  )

     Band symmetry, C_2v (mm2)  double point group:

     e(  1 -  2) =     -6.20712  eV     2   --> G_5  D_5       
     e(  3 -  4) =      1.66353  eV     2   --> G_5  D_5       
     e(  5 -  6) =      3.46574  eV     2   --> G_5  D_5       
     e(  7 -  8) =      3.60618  eV     2   --> G_5  D_5       
     e(  9 - 10) =      7.45713  eV     2   --> G_5  D_5       
     e( 11 - 12) =      8.65211  eV     2   --> G_5  D_5       
     e( 13 - 14) =     11.70632  eV     2   --> G_5  D_5       
     e( 15 - 16) =     11.76523  eV     2   --> G_5  D_5       

 **************************************************************************

 **************************************************************************

                    xk=(   0.00000,   0.55000,   0.00000  )

     Band symmetry, C_2v (mm2)  double point group:

     e(  1 -  2) =     -6.05979  eV     2   --> G_5  D_5       
     e(  3 -  4) =      1.32295  eV     2   --> G_5  D_5       
     e(  5 -  6) =      3.31775  eV     2   --> G_5  D_5       
     e(  7 -  8) =      3.45506  eV     2   --> G_5  D_5       
     e(  9 - 10) =      7.26347  eV     2   --> G_5  D_5       
     e( 11 - 12) =      8.41568  eV     2   --> G_5  D_5       
     e( 13 - 14) =     12.09843  eV     2   --> G_5  D_5       
     e( 15 - 16) =     12.16452  eV     2   --> G_5  D_5       

 **************************************************************************

 **************************************************************************

                    xk=(   0.00000,   0.60000,   0.00000  )

     Band symmetry, C_2v (mm2)  double point group:

     e(  1 -  2) =     -5.90619  eV     2   --> G_5  D_5       
     e(  3 -  4) =      0.99616  eV     2   --> G_5  D_5       
     e(  5 -  6) =      3.18183  eV     2   --> G_5  D_5       
     e(  7 -  8) =      3.31643  eV     2   --> G_5  D_5       
     e(  9 - 10) =      7.08206  eV     2   --> G_5  D_5       
     e( 11 - 12) =      8.17161  eV     2   --> G_5  D_5       
     e( 13 - 14) =     12.49898  eV     2   --> G_5  D_5       
     e( 15 - 16) =     12.57153  eV     2   --> G_5  D_5       

 **************************************************************************

 **************************************************************************

                    xk=(   0.00000,   0.65000,   0.00000  )

     Band symmetry, C_2v (mm2)  double point group:

     e(  1 -  2) =     -5.74945  eV     2   --> G_5  D_5       
     e(  3 -  4) =      0.68631  eV     2   --> G_5  D_5       
     e(  5 -  6) =      3.05935  eV     2   --> G_5  D_5       
     e(  7 -  8) =      3.19164  eV     2   --> G_5  D_5       
     e(  9 - 10) =      6.91459  eV     2   --> G_5  D_5       
     e( 11 - 12) =      7.94042  eV     2   --> G_5  D_5       
     e( 13 - 14) =     12.90531  eV     2   --> G_5  D_5       
     e( 15 - 16) =     12.98396  eV     2   --> G_5  D_5       

 **************************************************************************

 **************************************************************************

                    xk=(   0.00000,   0.70000,   0.00000  )

     Band symmetry, C_2v (mm2)  double point group:

     e(  1 -  2) =     -5.59353  eV     2   --> G_5  D_5       
     e(  3 -  4) =      0.39737  eV     2   --> G_5  D_5       
     e(  5 -  6) =      2.95142  eV     2   --> G_5  D_5       
     e(  7 -  8) =      3.08177  eV     2   --> G_5  D_5       
     e(  9 - 10) =      6.76283  eV     2   --> G_5  D_5       
     e( 11 - 12) =      7.73319  eV     2   --> G_5  D_5       
     e( 13 - 14) =     13.31443  eV     2   --> G_5  D_5       
     e( 15 - 16) =     13.39921  eV     2   --> G_5  D_5       

 **************************************************************************

 **************************************************************************

                    xk=(   0.00000,   0.75000,   0.00000  )

     Band symmetry, C_2v (mm2)  double point group:

     e(  1 -  2) =     -5.44336  eV     2   --> G_5  D_5       
     e(  3 -  4) =      0.13435  eV     2   --> G_5  D_5       
     e(  5 -  6) =      2.85888  eV     2   --> G_5  D_5       
     e(  7 -  8) =      2.98764  eV     2   --> G_5  D_5       
     e(  9 - 10) =      6.62881  eV     2   --> G_5  D_5       
     e( 11 - 12) =      7.55564  eV     2   --> G_5  D_5       
     e( 13 - 14) =     13.72239  eV     2   --> G_5  D_5       
     e( 15 - 16) =     13.81373  eV     2   --> G_5  D_5       

 **************************************************************************

 **************************************************************************

                    xk=(   0.00000,   0.80000,   0.00000  )

     Band symmetry, C_2v (mm2)  double point group:

     e(  1 -  2) =     -5.30500  eV     2   --> G_5  D_5       
     e(  3 -  4) =     -0.09661  eV     2   --> G_5  D_5       
     e(  5 -  6) =      2.78238  eV     2   --> G_5  D_5       
     e(  7 -  8) =      2.90987  eV     2   --> G_5  D_5       
     e(  9 - 10) =      6.51479  eV     2   --> G_5  D_5       
     e( 11 - 12) =      7.41028  eV     2   --> G_5  D_5       
     e( 13 - 14) =     14.12272  eV     2   --> G_5  D_5       
     e( 15 - 16) =     14.22157  eV     2   --> G_5  D_5       

 **************************************************************************

 **************************************************************************

                    xk=(   0.00000,   0.85000,   0.00000  )

     Band symmetry, C_2v (mm2)  double point group:

     e(  1 -  2) =     -5.18550  eV     2   --> G_5  D_5       
     e(  3 -  4) =     -0.28834  eV     2   --> G_5  D_5       
     e(  5 -  6) =      2.72241  eV     2   --> G_5  D_5       
     e(  7 -  8) =      2.84893  eV     2   --> G_5  D_5       
     e(  9 - 10) =      6.42310  eV     2   --> G_5  D_5       
     e( 11 - 12) =      7.29784  eV     2   --> G_5  D_5       
     e( 13 - 14) =     14.50362  eV     2   --> G_5  D_5       
     e( 15 - 16) =     14.61158  eV     2   --> G_5  D_5       

 **************************************************************************

 **************************************************************************

                    xk=(   0.00000,   0.90000,   0.00000  )

     Band symmetry, C_2v (mm2)  double point group:

     e(  1 -  2) =     -5.09247  eV     2   --> G_5  D_5       
     e(  3 -  4) =     -0.43308  eV     2   --> G_5  D_5       
     e(  5 -  6) =      2.67933  eV     2   --> G_5  D_5       
     e(  7 -  8) =      2.80517  eV     2   --> G_5  D_5       
     e(  9 - 10) =      6.35587  eV     2   --> G_5  D_5       
     e( 11 - 12) =      7.21812  eV     2   --> G_5  D_5       
     e( 13 - 14) =     14.84187  eV     2   --> G_5  D_5       
     e( 15 - 16) =     14.96102  eV     2   --> G_5  D_5       

 **************************************************************************

 **************************************************************************

                    xk=(   0.00000,   0.95000,   0.00000  )

     Band symmetry, C_2v (mm2)  double point group:

     e(  1 -  2) =     -5.03309  eV     2   --> G_5  D_5       
     e(  3 -  4) =     -0.52353  eV     2   --> G_5  D_5       
     e(  5 -  6) =      2.65338  eV     2   --> G_5  D_5       
     e(  7 -  8) =      2.77882  eV     2   --> G_5  D_5       
     e(  9 - 10) =      6.31481  eV     2   --> G_5  D_5       
     e( 11 - 12) =      7.17059  eV     2   --> G_5  D_5       
     e( 13 - 14) =     15.09274  eV     2   --> G_5  D_5       
     e( 15 - 16) =     15.22379  eV     2   --> G_5  D_5       

 **************************************************************************

 **************************************************************************

                    xk=(   0.00000,   1.00000,   0.00000  )

     double point group D_2d (-42m)
     there are  7 classes and  2 irreducible representations
     the character table:

       E     -E    2S4   -2S4  C2    2C2'  2s_d 
                               -C2   -2C2' -2s_d
G_6    2.00 -2.00  1.41 -1.41  0.00  0.00  0.00
G_7    2.00 -2.00 -1.41  1.41  0.00  0.00  0.00

     the symmetry operations in each class and the name of the first element:

     E             1
                                                                 
     -E           -1
                                                                 
     2S4           7    8
                                                                 
     -2S4         -7   -8
                                                                 
     C2   -C2      3   -3
                                                                 
     2C2' -2C2'    2   -2    4   -4
                                                                 
     2s_d -2s_d    5    6   -5   -6
                                                                 

     Band symmetry, D_2d (-42m) double point group:

     e(  1 -  2) =     -5.01264  eV     2   --> G_7  X_7  W_7  
     e(  3 -  4) =     -0.55435  eV     2   --> G_6  X_6  W_6  
     e(  5 -  6) =      2.64472  eV     2   --> G_6  X_6  W_6  
     e(  7 -  8) =      2.77002  eV     2   --> G_7  X_7  W_7  
     e(  9 - 10) =      6.30101  eV     2   --> G_7  X_7  W_7  
     e( 11 - 12) =      7.15481  eV     2   --> G_6  X_6  W_6  
     e( 13 - 14) =     15.18944  eV     2   --> G_6  X_6  W_6  
     e( 15 - 16) =     15.32644  eV     2   --> G_7  X_7  W_7  

 **************************************************************************

 **************************************************************************

                    xk=(   0.00000,   0.98750,   0.03750  )

     double point group C_1 (1)    
     there are  2 classes and  1 irreducible representations
     the character table:

       E     -E   
                  
G_2    1.00 -1.00

     the symmetry operations in each class and the name of the first element:

     E             1
                                                                 
     -E           -1
                                                                 

     Band symmetry, C_1 (1)     double point group:

     e(  1 -  1) =     -5.01359  eV     1   --> G_2            
     e(  2 -  2) =     -5.01338  eV     1   --> G_2            
     e(  3 -  3) =     -0.55138  eV     1   --> G_2            
     e(  4 -  4) =     -0.54612  eV     1   --> G_2            
     e(  5 -  5) =      2.62507  eV     1   --> G_2            
     e(  6 -  6) =      2.63836  eV     1   --> G_2            
     e(  7 -  7) =      2.75584  eV     1   --> G_2            
     e(  8 -  8) =      2.75704  eV     1   --> G_2            
     e(  9 -  9) =      6.32927  eV     1   --> G_2            
     e( 10 - 10) =      6.33020  eV     1   --> G_2            
     e( 11 - 11) =      7.18014  eV     1   --> G_2            
     e( 12 - 12) =      7.18898  eV     1   --> G_2            
     e( 13 - 13) =     15.12316  eV     1   --> G_2            
     e( 14 - 14) =     15.13718  eV     1   --> G_2            
     e( 15 - 15) =     15.27624  eV     1   --> G_2            
     e( 16 - 16) =     15.28844  eV     1   --> G_2            

 **************************************************************************

 **************************************************************************

                    xk=(   0.00000,   0.97500,   0.07500  )

     Band symmetry, C_1 (1)     double point group:

     e(  1 -  1) =     -5.01617  eV     1   --> G_2            
     e(  2 -  2) =     -5.01576  eV     1   --> G_2            
     e(  3 -  3) =     -0.53752  eV     1   --> G_2            
     e(  4 -  4) =     -0.52693  eV     1   --> G_2            
     e(  5 -  5) =      2.58014  eV     1   --> G_2            
     e(  6 -  6) =      2.60757  eV     1   --> G_2            
     e(  7 -  7) =      2.71538  eV     1   --> G_2            
     e(  8 -  8) =      2.71979  eV     1   --> G_2            
     e(  9 -  9) =      6.41355  eV     1   --> G_2            
     e( 10 - 10) =      6.41538  eV     1   --> G_2            
     e( 11 - 11) =      7.26376  eV     1   --> G_2            
     e( 12 - 12) =      7.28093  eV     1   --> G_2            
     e( 13 - 13) =     14.88781  eV     1   --> G_2            
     e( 14 - 14) =     14.91869  eV     1   --> G_2            
     e( 15 - 15) =     15.18307  eV     1   --> G_2            
     e( 16 - 16) =     15.22901  eV     1   --> G_2            

 **************************************************************************

 **************************************************************************

                    xk=(   0.00000,   0.96250,   0.11250  )

     Band symmetry, C_1 (1)     double point group:

     e(  1 -  1) =     -5.02024  eV     1   --> G_2            
     e(  2 -  2) =     -5.01963  eV     1   --> G_2            
     e(  3 -  3) =     -0.51364  eV     1   --> G_2            
     e(  4 -  4) =     -0.49757  eV     1   --> G_2            
     e(  5 -  5) =      2.51223  eV     1   --> G_2            
     e(  6 -  6) =      2.55596  eV     1   --> G_2            
     e(  7 -  7) =      2.65205  eV     1   --> G_2            
     e(  8 -  8) =      2.66555  eV     1   --> G_2            
     e(  9 -  9) =      6.54984  eV     1   --> G_2            
     e( 10 - 10) =      6.55263  eV     1   --> G_2            
     e( 11 - 11) =      7.40186  eV     1   --> G_2            
     e( 12 - 12) =      7.42648  eV     1   --> G_2            
     e( 13 - 13) =     14.50522  eV     1   --> G_2            
     e( 14 - 14) =     14.54202  eV     1   --> G_2            
     e( 15 - 15) =     15.06483  eV     1   --> G_2            
     e( 16 - 16) =     15.14383  eV     1   --> G_2            

 **************************************************************************

 **************************************************************************

                    xk=(   0.00000,   0.95000,   0.15000  )

     Band symmetry, C_1 (1)     double point group:

     e(  1 -  1) =     -5.02557  eV     1   --> G_2            
     e(  2 -  2) =     -5.02478  eV     1   --> G_2            
     e(  3 -  3) =     -0.48116  eV     1   --> G_2            
     e(  4 -  4) =     -0.45937  eV     1   --> G_2            
     e(  5 -  5) =      2.42465  eV     1   --> G_2            
     e(  6 -  6) =      2.48712  eV     1   --> G_2            
     e(  7 -  7) =      2.57423  eV     1   --> G_2            
     e(  8 -  8) =      2.60229  eV     1   --> G_2            
     e(  9 -  9) =      6.73259  eV     1   --> G_2            
     e( 10 - 10) =      6.73652  eV     1   --> G_2            
     e( 11 - 11) =      7.58894  eV     1   --> G_2            
     e( 12 - 12) =      7.62002  eV     1   --> G_2            
     e( 13 - 13) =     14.03307  eV     1   --> G_2            
     e( 14 - 14) =     14.06977  eV     1   --> G_2            
     e( 15 - 15) =     14.88920  eV     1   --> G_2            
     e( 16 - 16) =     14.99481  eV     1   --> G_2            

 **************************************************************************

 **************************************************************************

                    xk=(   0.00000,   0.93750,   0.18750  )

     Band symmetry, C_1 (1)     double point group:

     e(  1 -  1) =     -5.03188  eV     1   --> G_2            
     e(  2 -  2) =     -5.03093  eV     1   --> G_2            
     e(  3 -  3) =     -0.44201  eV     1   --> G_2            
     e(  4 -  4) =     -0.41424  eV     1   --> G_2            
     e(  5 -  5) =      2.32176  eV     1   --> G_2            
     e(  6 -  6) =      2.40151  eV     1   --> G_2            
     e(  7 -  7) =      2.49496  eV     1   --> G_2            
     e(  8 -  8) =      2.53772  eV     1   --> G_2            
     e(  9 -  9) =      6.95572  eV     1   --> G_2            
     e( 10 - 10) =      6.96105  eV     1   --> G_2            
     e( 11 - 11) =      7.81891  eV     1   --> G_2            
     e( 12 - 12) =      7.85550  eV     1   --> G_2            
     e( 13 - 13) =     13.51322  eV     1   --> G_2            
     e( 14 - 14) =     13.54777  eV     1   --> G_2            
     e( 15 - 15) =     14.64424  eV     1   --> G_2            
     e( 16 - 16) =     14.75343  eV     1   --> G_2            

 **************************************************************************

 **************************************************************************

                    xk=(   0.00000,   0.92500,   0.22500  )

     Band symmetry, C_1 (1)     double point group:

     e(  1 -  1) =     -5.03882  eV     1   --> G_2            
     e(  2 -  2) =     -5.03774  eV     1   --> G_2            
     e(  3 -  3) =     -0.39865  eV     1   --> G_2            
     e(  4 -  4) =     -0.36463  eV     1   --> G_2            
     e(  5 -  5) =      2.20872  eV     1   --> G_2            
     e(  6 -  6) =      2.29970  eV     1   --> G_2            
     e(  7 -  7) =      2.42672  eV     1   --> G_2            
     e(  8 -  8) =      2.47864  eV     1   --> G_2            
     e(  9 -  9) =      7.21329  eV     1   --> G_2            
     e( 10 - 10) =      7.22031  eV     1   --> G_2            
     e( 11 - 11) =      8.08585  eV     1   --> G_2            
     e( 12 - 12) =      8.12723  eV     1   --> G_2            
     e( 13 - 13) =     12.97206  eV     1   --> G_2            
     e( 14 - 14) =     13.00385  eV     1   --> G_2            
     e( 15 - 15) =     14.34547  eV     1   --> G_2            
     e( 16 - 16) =     14.44112  eV     1   --> G_2            

 **************************************************************************

 **************************************************************************

                    xk=(   0.00000,   0.91250,   0.26250  )

     Band symmetry, C_1 (1)     double point group:

     e(  1 -  1) =     -5.04605  eV     1   --> G_2            
     e(  2 -  2) =     -5.04484  eV     1   --> G_2            
     e(  3 -  3) =     -0.35395  eV     1   --> G_2            
     e(  4 -  4) =     -0.31346  eV     1   --> G_2            
     e(  5 -  5) =      2.09074  eV     1   --> G_2            
     e(  6 -  6) =      2.18795  eV     1   --> G_2            
     e(  7 -  7) =      2.37484  eV     1   --> G_2            
     e(  8 -  8) =      2.43092  eV     1   --> G_2            
     e(  9 -  9) =      7.49968  eV     1   --> G_2            
     e( 10 - 10) =      7.50873  eV     1   --> G_2            
     e( 11 - 11) =      8.38444  eV     1   --> G_2            
     e( 12 - 12) =      8.43014  eV     1   --> G_2            
     e( 13 - 13) =     12.42556  eV     1   --> G_2            
     e( 14 - 14) =     12.45428  eV     1   --> G_2            
     e( 15 - 15) =     14.01691  eV     1   --> G_2            
     e( 16 - 16) =     14.09727  eV     1   --> G_2            

 **************************************************************************

 **************************************************************************

                    xk=(   0.00000,   0.90000,   0.30000  )

     Band symmetry, C_1 (1)     double point group:

     e(  1 -  1) =     -5.05319  eV     1   --> G_2            
     e(  2 -  2) =     -5.05188  eV     1   --> G_2            
     e(  3 -  3) =     -0.31102  eV     1   --> G_2            
     e(  4 -  4) =     -0.26398  eV     1   --> G_2            
     e(  5 -  5) =      1.97247  eV     1   --> G_2            
     e(  6 -  6) =      2.07344  eV     1   --> G_2            
     e(  7 -  7) =      2.34198  eV     1   --> G_2            
     e(  8 -  8) =      2.39955  eV     1   --> G_2            
     e(  9 -  9) =      7.80928  eV     1   --> G_2            
     e( 10 - 10) =      7.82078  eV     1   --> G_2            
     e( 11 - 11) =      8.71003  eV     1   --> G_2            
     e( 12 - 12) =      8.75986  eV     1   --> G_2            
     e( 13 - 13) =     11.88443  eV     1   --> G_2            
     e( 14 - 14) =     11.90964  eV     1   --> G_2            
     e( 15 - 15) =     13.67562  eV     1   --> G_2            
     e( 16 - 16) =     13.74343  eV     1   --> G_2            

 **************************************************************************

 **************************************************************************

                    xk=(   0.00000,   0.88750,   0.33750  )

     Band symmetry, C_1 (1)     double point group:

     e(  1 -  1) =     -5.05988  eV     1   --> G_2            
     e(  2 -  2) =     -5.05849  eV     1   --> G_2            
     e(  3 -  3) =     -0.27291  eV     1   --> G_2            
     e(  4 -  4) =     -0.21947  eV     1   --> G_2            
     e(  5 -  5) =      1.85788  eV     1   --> G_2            
     e(  6 -  6) =      1.96135  eV     1   --> G_2            
     e(  7 -  7) =      2.33100  eV     1   --> G_2            
     e(  8 -  8) =      2.38860  eV     1   --> G_2            
     e(  9 -  9) =      8.13545  eV     1   --> G_2            
     e( 10 - 10) =      8.15012  eV     1   --> G_2            
     e( 11 - 11) =      9.05834  eV     1   --> G_2            
     e( 12 - 12) =      9.11256  eV     1   --> G_2            
     e( 13 - 13) =     11.35803  eV     1   --> G_2            
     e( 14 - 14) =     11.37875  eV     1   --> G_2            
     e( 15 - 15) =     13.33175  eV     1   --> G_2            
     e( 16 - 16) =     13.38958  eV     1   --> G_2            

 **************************************************************************

 **************************************************************************

                    xk=(  -0.00000,   0.87500,   0.37500  )

     Band symmetry, C_1 (1)     double point group:

     e(  1 -  1) =     -5.06580  eV     1   --> G_2            
     e(  2 -  2) =     -5.06435  eV     1   --> G_2            
     e(  3 -  3) =     -0.24227  eV     1   --> G_2            
     e(  4 -  4) =     -0.18289  eV     1   --> G_2            
     e(  5 -  5) =      1.75022  eV     1   --> G_2            
     e(  6 -  6) =      1.85539  eV     1   --> G_2            
     e(  7 -  7) =      2.34425  eV     1   --> G_2            
     e(  8 -  8) =      2.40089  eV     1   --> G_2            
     e(  9 -  9) =      8.46759  eV     1   --> G_2            
     e( 10 - 10) =      8.48691  eV     1   --> G_2            
     e( 11 - 11) =      9.42470  eV     1   --> G_2            
     e( 12 - 12) =      9.48433  eV     1   --> G_2            
     e( 13 - 13) =     10.85931  eV     1   --> G_2            
     e( 14 - 14) =     10.87316  eV     1   --> G_2            
     e( 15 - 15) =     12.99189  eV     1   --> G_2            
     e( 16 - 16) =     13.04134  eV     1   --> G_2            

 **************************************************************************

 **************************************************************************

                    xk=(   0.00000,   0.86250,   0.41250  )

     Band symmetry, C_1 (1)     double point group:

     e(  1 -  1) =     -5.07066  eV     1   --> G_2            
     e(  2 -  2) =     -5.06916  eV     1   --> G_2            
     e(  3 -  3) =     -0.22096  eV     1   --> G_2            
     e(  4 -  4) =     -0.15645  eV     1   --> G_2            
     e(  5 -  5) =      1.65215  eV     1   --> G_2            
     e(  6 -  6) =      1.75831  eV     1   --> G_2            
     e(  7 -  7) =      2.38277  eV     1   --> G_2            
     e(  8 -  8) =      2.43767  eV     1   --> G_2            
     e(  9 -  9) =      8.78051  eV     1   --> G_2            
     e( 10 - 10) =      8.80808  eV     1   --> G_2            
     e( 11 - 11) =      9.79867  eV     1   --> G_2            
     e( 12 - 12) =      9.86741  eV     1   --> G_2            
     e( 13 - 13) =     10.42076  eV     1   --> G_2            
     e( 14 - 14) =     10.42099  eV     1   --> G_2            
     e( 15 - 15) =     12.66148  eV     1   --> G_2            
     e( 16 - 16) =     12.70314  eV     1   --> G_2            

 **************************************************************************

 **************************************************************************

                    xk=(   0.00000,   0.85000,   0.45000  )

     Band symmetry, C_1 (1)     double point group:

     e(  1 -  1) =     -5.07421  eV     1   --> G_2            
     e(  2 -  2) =     -5.07267  eV     1   --> G_2            
     e(  3 -  3) =     -0.20975  eV     1   --> G_2            
     e(  4 -  4) =     -0.14124  eV     1   --> G_2            
     e(  5 -  5) =      1.56583  eV     1   --> G_2            
     e(  6 -  6) =      1.67226  eV     1   --> G_2            
     e(  7 -  7) =      2.44584  eV     1   --> G_2            
     e(  8 -  8) =      2.49825  eV     1   --> G_2            
     e(  9 -  9) =      8.99064  eV     1   --> G_2            
     e( 10 - 10) =      9.03361  eV     1   --> G_2            
     e( 11 - 11) =     10.01783  eV     1   --> G_2            
     e( 12 - 12) =     10.05141  eV     1   --> G_2            
     e( 13 - 13) =     10.27738  eV     1   --> G_2            
     e( 14 - 14) =     10.31468  eV     1   --> G_2            
     e( 15 - 15) =     12.34708  eV     1   --> G_2            
     e( 16 - 16) =     12.38024  eV     1   --> G_2            

 **************************************************************************

 **************************************************************************

                    xk=(   0.00000,   0.83750,   0.48750  )

     Band symmetry, C_1 (1)     double point group:

     e(  1 -  1) =     -5.07624  eV     1   --> G_2            
     e(  2 -  2) =     -5.07469  eV     1   --> G_2            
     e(  3 -  3) =     -0.20833  eV     1   --> G_2            
     e(  4 -  4) =     -0.13717  eV     1   --> G_2            
     e(  5 -  5) =      1.49290  eV     1   --> G_2            
     e(  6 -  6) =      1.59888  eV     1   --> G_2            
     e(  7 -  7) =      2.53071  eV     1   --> G_2            
     e(  8 -  8) =      2.57990  eV     1   --> G_2            
     e(  9 -  9) =      8.91816  eV     1   --> G_2            
     e( 10 - 10) =      8.96831  eV     1   --> G_2            
     e( 11 - 11) =     10.04556  eV     1   --> G_2            
     e( 12 - 12) =     10.06518  eV     1   --> G_2            
     e( 13 - 13) =     10.63994  eV     1   --> G_2            
     e( 14 - 14) =     10.70676  eV     1   --> G_2            
     e( 15 - 15) =     12.06111  eV     1   --> G_2            
     e( 16 - 16) =     12.08275  eV     1   --> G_2            

 **************************************************************************

 **************************************************************************

                    xk=(  -0.00000,   0.82500,   0.52500  )

     Band symmetry, C_1 (1)     double point group:

     e(  1 -  1) =     -5.07662  eV     1   --> G_2            
     e(  2 -  2) =     -5.07506  eV     1   --> G_2            
     e(  3 -  3) =     -0.21548  eV     1   --> G_2            
     e(  4 -  4) =     -0.14307  eV     1   --> G_2            
     e(  5 -  5) =      1.43463  eV     1   --> G_2            
     e(  6 -  6) =      1.53942  eV     1   --> G_2            
     e(  7 -  7) =      2.63253  eV     1   --> G_2            
     e(  8 -  8) =      2.67775  eV     1   --> G_2            
     e(  9 -  9) =      8.61467  eV     1   --> G_2            
     e( 10 - 10) =      8.65742  eV     1   --> G_2            
     e( 11 - 11) =     10.29212  eV     1   --> G_2            
     e( 12 - 12) =     10.31363  eV     1   --> G_2            
     e( 13 - 13) =     11.02287  eV     1   --> G_2            
     e( 14 - 14) =     11.10708  eV     1   --> G_2            
     e( 15 - 15) =     11.83881  eV     1   --> G_2            
     e( 16 - 16) =     11.84285  eV     1   --> G_2            

 **************************************************************************

 **************************************************************************

                    xk=(  -0.00000,   0.81250,   0.56250  )

     Band symmetry, C_1 (1)     double point group:

     e(  1 -  1) =     -5.07526  eV     1   --> G_2            
     e(  2 -  2) =     -5.07371  eV     1   --> G_2            
     e(  3 -  3) =     -0.22938  eV     1   --> G_2            
     e(  4 -  4) =     -0.15703  eV     1   --> G_2            
     e(  5 -  5) =      1.39186  eV     1   --> G_2            
     e(  6 -  6) =      1.49476  eV     1   --> G_2            
     e(  7 -  7) =      2.74443  eV     1   --> G_2            
     e(  8 -  8) =      2.78485  eV     1   --> G_2            
     e(  9 -  9) =      8.25796  eV     1   --> G_2            
     e( 10 - 10) =      8.29362  eV     1   --> G_2            
     e( 11 - 11) =     10.54725  eV     1   --> G_2            
     e( 12 - 12) =     10.58367  eV     1   --> G_2            
     e( 13 - 13) =     11.31598  eV     1   --> G_2            
     e( 14 - 14) =     11.39830  eV     1   --> G_2            
     e( 15 - 15) =     11.80871  eV     1   --> G_2            
     e( 16 - 16) =     11.81722  eV     1   --> G_2            

 **************************************************************************

 **************************************************************************

                    xk=(   0.00000,   0.80000,   0.60000  )

     Band symmetry, C_1 (1)     double point group:

     e(  1 -  1) =     -5.07213  eV     1   --> G_2            
     e(  2 -  2) =     -5.07059  eV     1   --> G_2            
     e(  3 -  3) =     -0.24792  eV     1   --> G_2            
     e(  4 -  4) =     -0.17677  eV     1   --> G_2            
     e(  5 -  5) =      1.36508  eV     1   --> G_2            
     e(  6 -  6) =      1.46552  eV     1   --> G_2            
     e(  7 -  7) =      2.85742  eV     1   --> G_2            
     e(  8 -  8) =      2.89207  eV     1   --> G_2            
     e(  9 -  9) =      7.91478  eV     1   --> G_2            
     e( 10 - 10) =      7.94443  eV     1   --> G_2            
     e( 11 - 11) =     10.61669  eV     1   --> G_2            
     e( 12 - 12) =     10.67625  eV     1   --> G_2            
     e( 13 - 13) =     11.52696  eV     1   --> G_2            
     e( 14 - 14) =     11.56736  eV     1   --> G_2            
     e( 15 - 15) =     12.10787  eV     1   --> G_2            
     e( 16 - 16) =     12.13832  eV     1   --> G_2            

 **************************************************************************

 **************************************************************************

                    xk=(  -0.00000,   0.78750,   0.63750  )

     Band symmetry, C_1 (1)     double point group:

     e(  1 -  1) =     -5.06728  eV     1   --> G_2            
     e(  2 -  2) =     -5.06575  eV     1   --> G_2            
     e(  3 -  3) =     -0.26903  eV     1   --> G_2            
     e(  4 -  4) =     -0.19997  eV     1   --> G_2            
     e(  5 -  5) =      1.35449  eV     1   --> G_2            
     e(  6 -  6) =      1.45203  eV     1   --> G_2            
     e(  7 -  7) =      2.96036  eV     1   --> G_2            
     e(  8 -  8) =      2.98812  eV     1   --> G_2            
     e(  9 -  9) =      7.61164  eV     1   --> G_2            
     e( 10 - 10) =      7.63546  eV     1   --> G_2            
     e( 11 - 11) =     10.48388  eV     1   --> G_2            
     e( 12 - 12) =     10.54653  eV     1   --> G_2            
     e( 13 - 13) =     11.85697  eV     1   --> G_2            
     e( 14 - 14) =     11.89334  eV     1   --> G_2            
     e( 15 - 15) =     12.50975  eV     1   --> G_2            
     e( 16 - 16) =     12.56345  eV     1   --> G_2            

 **************************************************************************

 **************************************************************************

                    xk=(   0.00000,   0.77500,   0.67500  )

     Band symmetry, C_1 (1)     double point group:

     e(  1 -  1) =     -5.06080  eV     1   --> G_2            
     e(  2 -  2) =     -5.05929  eV     1   --> G_2            
     e(  3 -  3) =     -0.29077  eV     1   --> G_2            
     e(  4 -  4) =     -0.22442  eV     1   --> G_2            
     e(  5 -  5) =      1.36001  eV     1   --> G_2            
     e(  6 -  6) =      1.45438  eV     1   --> G_2            
     e(  7 -  7) =      3.04027  eV     1   --> G_2            
     e(  8 -  8) =      3.05990  eV     1   --> G_2            
     e(  9 -  9) =      7.36613  eV     1   --> G_2            
     e( 10 - 10) =      7.38390  eV     1   --> G_2            
     e( 11 - 11) =     10.27543  eV     1   --> G_2            
     e( 12 - 12) =     10.33459  eV     1   --> G_2            
     e( 13 - 13) =     12.26483  eV     1   --> G_2            
     e( 14 - 14) =     12.30172  eV     1   --> G_2            
     e( 15 - 15) =     12.91619  eV     1   --> G_2            
     e( 16 - 16) =     12.98799  eV     1   --> G_2            

 **************************************************************************

 **************************************************************************

                    xk=(  -0.00000,   0.76250,   0.71250  )

     Band symmetry, C_1 (1)     double point group:

     e(  1 -  1) =     -5.05287  eV     1   --> G_2            
     e(  2 -  2) =     -5.05138  eV     1   --> G_2            
     e(  3 -  3) =     -0.31149  eV     1   --> G_2            
     e(  4 -  4) =     -0.24819  eV     1   --> G_2            
     e(  5 -  5) =      1.38137  eV     1   --> G_2            
     e(  6 -  6) =      1.47247  eV     1   --> G_2            
     e(  7 -  7) =      3.08360  eV     1   --> G_2            
     e(  8 -  8) =      3.09406  eV     1   --> G_2            
     e(  9 -  9) =      7.19266  eV     1   --> G_2            
     e( 10 - 10) =      7.20474  eV     1   --> G_2            
     e( 11 - 11) =     10.04939  eV     1   --> G_2            
     e( 12 - 12) =     10.10536  eV     1   --> G_2            
     e( 13 - 13) =     12.69684  eV     1   --> G_2            
     e( 14 - 14) =     12.73145  eV     1   --> G_2            
     e( 15 - 15) =     13.23755  eV     1   --> G_2            
     e( 16 - 16) =     13.29510  eV     1   --> G_2            

 **************************************************************************

 **************************************************************************

                    xk=(   0.00000,   0.75000,   0.75000  )

     double point group C_s (m)    
     there are  4 classes and  2 irreducible representations
     the character table:

       E     -E    s     -s   
                              
G_3    1.00 -1.00  0.00  0.00
G_4    1.00 -1.00  0.00  0.00

     imaginary part

       E     -E    s     -s   
                              
G_3    0.00  0.00  1.00 -1.00
G_4    0.00  0.00 -1.00  1.00

     the symmetry operations in each class and the name of the first element:

     E             1
                                                                 
     -E           -1
                                                                 
     s             2
                                                                 
     -s           -2
                                                                 

     Band symmetry, C_s (m)     double point group:

     e(  1 -  1) =     -5.04376  eV     1   --> G_4            
     e(  2 -  2) =     -5.04229  eV     1   --> G_3            
     e(  3 -  3) =     -0.32983  eV     1   --> G_3            
     e(  4 -  4) =     -0.26967  eV     1   --> G_4            
     e(  5 -  5) =      1.41811  eV     1   --> G_4            
     e(  6 -  6) =      1.50602  eV     1   --> G_3            
     e(  7 -  7) =      3.07813  eV     1   --> G_3            
     e(  8 -  8) =      3.08110  eV     1   --> G_4            
     e(  9 -  9) =      7.10088  eV     1   --> G_4            
     e( 10 - 10) =      7.11032  eV     1   --> G_3            
     e( 11 - 11) =      9.82481  eV     1   --> G_3            
     e( 12 - 12) =      9.87848  eV     1   --> G_4            
     e( 13 - 14) =     13.07155  eV     2   --> G_3            
     e( 13 - 14) =     13.07155  eV     2   --> G_4            
     e( 15 - 15) =     13.24681  eV     1   --> G_4            
     e( 16 - 16) =     13.28319  eV     1   --> G_3            

 **************************************************************************

 **************************************************************************

                    xk=(   0.00000,   0.71250,   0.71250  )

     Band symmetry, C_s (m)     double point group:

     e(  1 -  1) =     -5.08064  eV     1   --> G_4            
     e(  2 -  2) =     -5.07917  eV     1   --> G_3            
     e(  3 -  3) =     -0.27994  eV     1   --> G_3            
     e(  4 -  4) =     -0.21190  eV     1   --> G_4            
     e(  5 -  5) =      1.32102  eV     1   --> G_4            
     e(  6 -  6) =      1.41676  eV     1   --> G_3            
     e(  7 -  7) =      3.19077  eV     1   --> G_3            
     e(  8 -  8) =      3.19350  eV     1   --> G_4            
     e(  9 -  9) =      7.25589  eV     1   --> G_4            
     e( 10 - 10) =      7.26447  eV     1   --> G_3            
     e( 11 - 11) =     10.48420  eV     1   --> G_3            
     e( 12 - 12) =     10.54476  eV     1   --> G_4            
     e( 13 - 13) =     12.67238  eV     1   --> G_4            
     e( 14 - 14) =     12.67364  eV     1   --> G_3            
     e( 15 - 15) =     12.88671  eV     1   --> G_4            
     e( 16 - 16) =     12.93759  eV     1   --> G_3            

 **************************************************************************

 **************************************************************************

                    xk=(   0.00000,   0.67500,   0.67500  )

     Band symmetry, C_s (m)     double point group:

     e(  1 -  1) =     -5.13567  eV     1   --> G_4            
     e(  2 -  2) =     -5.13428  eV     1   --> G_3            
     e(  3 -  3) =     -0.22813  eV     1   --> G_3            
     e(  4 -  4) =     -0.15610  eV     1   --> G_4            
     e(  5 -  5) =      1.29820  eV     1   --> G_4            
     e(  6 -  6) =      1.39793  eV     1   --> G_3            
     e(  7 -  7) =      3.31492  eV     1   --> G_3            
     e(  8 -  8) =      3.31749  eV     1   --> G_4            
     e(  9 -  9) =      7.42354  eV     1   --> G_4            
     e( 10 - 10) =      7.43114  eV     1   --> G_3            
     e( 11 - 11) =     11.07632  eV     1   --> G_3            
     e( 12 - 12) =     11.14333  eV     1   --> G_4            
     e( 13 - 13) =     12.29090  eV     1   --> G_4            
     e( 14 - 14) =     12.29152  eV     1   --> G_3            
     e( 15 - 15) =     12.58326  eV     1   --> G_4            
     e( 16 - 16) =     12.61026  eV     1   --> G_3            

 **************************************************************************

 **************************************************************************

                    xk=(   0.00000,   0.63750,   0.63750  )

     Band symmetry, C_s (m)     double point group:

     e(  1 -  1) =     -5.21081  eV     1   --> G_4            
     e(  2 -  2) =     -5.20959  eV     1   --> G_3            
     e(  3 -  3) =     -0.16635  eV     1   --> G_3            
     e(  4 -  4) =     -0.09456  eV     1   --> G_4            
     e(  5 -  5) =      1.34687  eV     1   --> G_4            
     e(  6 -  6) =      1.44641  eV     1   --> G_3            
     e(  7 -  7) =      3.44863  eV     1   --> G_3            
     e(  8 -  8) =      3.45112  eV     1   --> G_4            
     e(  9 -  9) =      7.60233  eV     1   --> G_4            
     e( 10 - 10) =      7.60871  eV     1   --> G_3            
     e( 11 - 11) =     11.40365  eV     1   --> G_3            
     e( 12 - 12) =     11.44707  eV     1   --> G_4            
     e( 13 - 13) =     11.92868  eV     1   --> G_3            
     e( 14 - 14) =     11.93060  eV     1   --> G_4            
     e( 15 - 15) =     12.25688  eV     1   --> G_3            
     e( 16 - 16) =     12.31323  eV     1   --> G_4            

 **************************************************************************

 **************************************************************************

                    xk=(   0.00000,   0.60000,   0.60000  )

     Band symmetry, C_s (m)     double point group:

     e(  1 -  1) =     -5.30635  eV     1   --> G_4            
     e(  2 -  2) =     -5.30533  eV     1   --> G_3            
     e(  3 -  3) =     -0.08382  eV     1   --> G_3            
     e(  4 -  4) =     -0.01533  eV     1   --> G_4            
     e(  5 -  5) =      1.45696  eV     1   --> G_4            
     e(  6 -  6) =      1.55335  eV     1   --> G_3            
     e(  7 -  7) =      3.58963  eV     1   --> G_3            
     e(  8 -  8) =      3.59207  eV     1   --> G_4            
     e(  9 -  9) =      7.78916  eV     1   --> G_4            
     e( 10 - 10) =      7.79391  eV     1   --> G_3            
     e( 11 - 11) =     11.34569  eV     1   --> G_4            
     e( 12 - 12) =     11.35483  eV     1   --> G_3            
     e( 13 - 13) =     11.58697  eV     1   --> G_3            
     e( 14 - 14) =     11.59273  eV     1   --> G_4            
     e( 15 - 15) =     11.90740  eV     1   --> G_3            
     e( 16 - 16) =     12.00355  eV     1   --> G_4            

 **************************************************************************

 **************************************************************************

                    xk=(   0.00000,   0.56250,   0.56250  )

     Band symmetry, C_s (m)     double point group:

     e(  1 -  1) =     -5.42076  eV     1   --> G_4            
     e(  2 -  2) =     -5.41996  eV     1   --> G_3            
     e(  3 -  3) =      0.02914  eV     1   --> G_3            
     e(  4 -  4) =      0.09290  eV     1   --> G_4            
     e(  5 -  5) =      1.61624  eV     1   --> G_4            
     e(  6 -  6) =      1.70808  eV     1   --> G_3            
     e(  7 -  7) =      3.73525  eV     1   --> G_3            
     e(  8 -  8) =      3.73771  eV     1   --> G_4            
     e(  9 -  9) =      7.97910  eV     1   --> G_4            
     e( 10 - 10) =      7.98147  eV     1   --> G_3            
     e( 11 - 11) =     11.09213  eV     1   --> G_4            
     e( 12 - 12) =     11.13561  eV     1   --> G_3            
     e( 13 - 13) =     11.26794  eV     1   --> G_3            
     e( 14 - 14) =     11.27764  eV     1   --> G_4            
     e( 15 - 15) =     11.58833  eV     1   --> G_3            
     e( 16 - 16) =     11.70000  eV     1   --> G_4            

 **************************************************************************

 **************************************************************************

                    xk=(   0.00000,   0.52500,   0.52500  )

     Band symmetry, C_s (m)     double point group:

     e(  1 -  1) =     -5.55093  eV     1   --> G_4            
     e(  2 -  2) =     -5.55034  eV     1   --> G_3            
     e(  3 -  3) =      0.17896  eV     1   --> G_3            
     e(  4 -  4) =      0.23770  eV     1   --> G_4            
     e(  5 -  5) =      1.81381  eV     1   --> G_4            
     e(  6 -  6) =      1.90087  eV     1   --> G_3            
     e(  7 -  7) =      3.88251  eV     1   --> G_3            
     e(  8 -  8) =      3.88504  eV     1   --> G_4            
     e(  9 -  9) =      8.16349  eV     1   --> G_3            
     e( 10 - 10) =      8.16468  eV     1   --> G_4            
     e( 11 - 11) =     10.81148  eV     1   --> G_4            
     e( 12 - 12) =     10.87198  eV     1   --> G_3            
     e( 13 - 13) =     10.97482  eV     1   --> G_3            
     e( 14 - 14) =     10.98645  eV     1   --> G_4            
     e( 15 - 15) =     11.31110  eV     1   --> G_3            
     e( 16 - 16) =     11.42717  eV     1   --> G_4            

 **************************************************************************

 **************************************************************************

                    xk=(   0.00000,   0.48750,   0.48750  )

     Band symmetry, C_s (m)     double point group:

     e(  1 -  1) =     -5.69273  eV     1   --> G_4            
     e(  2 -  2) =     -5.69233  eV     1   --> G_3            
     e(  3 -  3) =      0.36853  eV     1   --> G_3            
     e(  4 -  4) =      0.42257  eV     1   --> G_4            
     e(  5 -  5) =      2.04109  eV     1   --> G_4            
     e(  6 -  6) =      2.12369  eV     1   --> G_3            
     e(  7 -  7) =      4.02814  eV     1   --> G_3            
     e(  8 -  8) =      4.03078  eV     1   --> G_4            
     e(  9 -  9) =      8.32869  eV     1   --> G_3            
     e( 10 - 10) =      8.33518  eV     1   --> G_4            
     e( 11 - 11) =     10.53649  eV     1   --> G_4            
     e( 12 - 12) =     10.60081  eV     1   --> G_3            
     e( 13 - 13) =     10.71045  eV     1   --> G_3            
     e( 14 - 14) =     10.72029  eV     1   --> G_4            
     e( 15 - 15) =     11.08488  eV     1   --> G_3            
     e( 16 - 16) =     11.19692  eV     1   --> G_4            

 **************************************************************************

 **************************************************************************

                    xk=(   0.00000,   0.45000,   0.45000  )

     Band symmetry, C_s (m)     double point group:

     e(  1 -  1) =     -5.84156  eV     1   --> G_4            
     e(  2 -  2) =     -5.84130  eV     1   --> G_3            
     e(  3 -  3) =      0.59810  eV     1   --> G_3            
     e(  4 -  4) =      0.64798  eV     1   --> G_4            
     e(  5 -  5) =      2.29129  eV     1   --> G_4            
     e(  6 -  6) =      2.36996  eV     1   --> G_3            
     e(  7 -  7) =      4.16870  eV     1   --> G_3            
     e(  8 -  8) =      4.17151  eV     1   --> G_4            
     e(  9 -  9) =      8.46236  eV     1   --> G_3            
     e( 10 - 10) =      8.47629  eV     1   --> G_4            
     e( 11 - 11) =     10.27829  eV     1   --> G_4            
     e( 12 - 12) =     10.33803  eV     1   --> G_3            
     e( 13 - 13) =     10.47308  eV     1   --> G_3            
     e( 14 - 14) =     10.47929  eV     1   --> G_4            
     e( 15 - 15) =     10.91875  eV     1   --> G_3            
     e( 16 - 16) =     11.01924  eV     1   --> G_4            

 **************************************************************************

 **************************************************************************

                    xk=(   0.00000,   0.41250,   0.41250  )

     Band symmetry, C_s (m)     double point group:

     e(  1 -  1) =     -5.99288  eV     1   --> G_4            
     e(  2 -  2) =     -5.99273  eV     1   --> G_3            
     e(  3 -  3) =      0.86626  eV     1   --> G_3            
     e(  4 -  4) =      0.91254  eV     1   --> G_4            
     e(  5 -  5) =      2.55872  eV     1   --> G_4            
     e(  6 -  6) =      2.63397  eV     1   --> G_3            
     e(  7 -  7) =      4.30084  eV     1   --> G_3            
     e(  8 -  8) =      4.30388  eV     1   --> G_4            
     e(  9 -  9) =      8.54885  eV     1   --> G_3            
     e( 10 - 10) =      8.57195  eV     1   --> G_4            
     e( 11 - 11) =     10.04231  eV     1   --> G_4            
     e( 12 - 12) =     10.09302  eV     1   --> G_3            
     e( 13 - 13) =     10.25965  eV     1   --> G_3            
     e( 14 - 14) =     10.26261  eV     1   --> G_4            
     e( 15 - 15) =     10.81889  eV     1   --> G_3            
     e( 16 - 16) =     10.90162  eV     1   --> G_4            

 **************************************************************************

 **************************************************************************

                    xk=(   0.00000,   0.37500,   0.37500  )

     Band symmetry, C_s (m)     double point group:

     e(  1 -  2) =     -6.14250  eV     2   --> G_3            
     e(  1 -  2) =     -6.14250  eV     2   --> G_4            
     e(  3 -  3) =      1.17071  eV     1   --> G_3            
     e(  4 -  4) =      1.21388  eV     1   --> G_4            
     e(  5 -  5) =      2.83809  eV     1   --> G_4            
     e(  6 -  6) =      2.91031  eV     1   --> G_3            
     e(  7 -  7) =      4.42155  eV     1   --> G_3            
     e(  8 -  8) =      4.42489  eV     1   --> G_4            
     e(  9 -  9) =      8.57768  eV     1   --> G_3            
     e( 10 - 10) =      8.60981  eV     1   --> G_4            
     e( 11 - 11) =      9.83183  eV     1   --> G_4            
     e( 12 - 12) =      9.87117  eV     1   --> G_3            
     e( 13 - 13) =     10.06809  eV     1   --> G_3            
     e( 14 - 14) =     10.06881  eV     1   --> G_4            
     e( 15 - 15) =     10.78058  eV     1   --> G_3            
     e( 16 - 16) =     10.84193  eV     1   --> G_4            

 **************************************************************************

 **************************************************************************

                    xk=(   0.00000,   0.33750,   0.33750  )

     Band symmetry, C_s (m)     double point group:

     e(  1 -  2) =     -6.28676  eV     2   --> G_3            
     e(  1 -  2) =     -6.28676  eV     2   --> G_4            
     e(  3 -  3) =      1.50864  eV     1   --> G_3            
     e(  4 -  4) =      1.54909  eV     1   --> G_4            
     e(  5 -  5) =      3.12400  eV     1   --> G_4            
     e(  6 -  6) =      3.19342  eV     1   --> G_3            
     e(  7 -  7) =      4.52848  eV     1   --> G_3            
     e(  8 -  8) =      4.53219  eV     1   --> G_4            
     e(  9 -  9) =      8.54928  eV     1   --> G_3            
     e( 10 - 10) =      8.58771  eV     1   --> G_4            
     e( 11 - 11) =      9.64907  eV     1   --> G_4            
     e( 12 - 12) =      9.67600  eV     1   --> G_3            
     e( 13 - 13) =      9.89625  eV     1   --> G_4            
     e( 14 - 14) =      9.89687  eV     1   --> G_3            
     e( 15 - 15) =     10.77897  eV     1   --> G_3            
     e( 16 - 16) =     10.81850  eV     1   --> G_4            

 **************************************************************************

 **************************************************************************

                    xk=(   0.00000,   0.30000,   0.30000  )

     Band symmetry, C_s (m)     double point group:

     e(  1 -  2) =     -6.42255  eV     2   --> G_3            
     e(  1 -  2) =     -6.42255  eV     2   --> G_4            
     e(  3 -  3) =      1.87689  eV     1   --> G_3            
     e(  4 -  4) =      1.91491  eV     1   --> G_4            
     e(  5 -  5) =      3.41060  eV     1   --> G_4            
     e(  6 -  6) =      3.47722  eV     1   --> G_3            
     e(  7 -  7) =      4.62024  eV     1   --> G_3            
     e(  8 -  8) =      4.62440  eV     1   --> G_4            
     e(  9 -  9) =      8.47336  eV     1   --> G_3            
     e( 10 - 10) =      8.51404  eV     1   --> G_4            
     e( 11 - 11) =      9.49547  eV     1   --> G_4            
     e( 12 - 12) =      9.51007  eV     1   --> G_3            
     e( 13 - 13) =      9.74340  eV     1   --> G_4            
     e( 14 - 14) =      9.74477  eV     1   --> G_3            
     e( 15 - 15) =     10.76641  eV     1   --> G_3            
     e( 16 - 16) =     10.78563  eV     1   --> G_4            

 **************************************************************************

 **************************************************************************

                    xk=(   0.00000,   0.26250,   0.26250  )

     Band symmetry, C_s (m)     double point group:

     e(  1 -  2) =     -6.54733  eV     2   --> G_3            
     e(  1 -  2) =     -6.54733  eV     2   --> G_4            
     e(  3 -  3) =      2.27187  eV     1   --> G_3            
     e(  4 -  4) =      2.30765  eV     1   --> G_4            
     e(  5 -  5) =      3.69127  eV     1   --> G_4            
     e(  6 -  6) =      3.75483  eV     1   --> G_3            
     e(  7 -  7) =      4.69658  eV     1   --> G_3            
     e(  8 -  8) =      4.70129  eV     1   --> G_4            
     e(  9 -  9) =      8.36121  eV     1   --> G_3            
     e( 10 - 10) =      8.40056  eV     1   --> G_4            
     e( 11 - 11) =      9.37192  eV     1   --> G_4            
     e( 12 - 12) =      9.37533  eV     1   --> G_3            
     e( 13 - 13) =      9.60908  eV     1   --> G_4            
     e( 14 - 14) =      9.61087  eV     1   --> G_3            
     e( 15 - 15) =     10.68267  eV     1   --> G_3            
     e( 16 - 16) =     10.68390  eV     1   --> G_4            

 **************************************************************************

 **************************************************************************

                    xk=(   0.00000,   0.22500,   0.22500  )

     Band symmetry, C_s (m)     double point group:

     e(  1 -  2) =     -6.65901  eV     2   --> G_3            
     e(  1 -  2) =     -6.65901  eV     2   --> G_4            
     e(  3 -  3) =      2.68919  eV     1   --> G_3            
     e(  4 -  4) =      2.72279  eV     1   --> G_4            
     e(  5 -  5) =      3.95851  eV     1   --> G_4            
     e(  6 -  6) =      4.01843  eV     1   --> G_3            
     e(  7 -  7) =      4.75849  eV     1   --> G_3            
     e(  8 -  8) =      4.76383  eV     1   --> G_4            
     e(  9 -  9) =      8.21928  eV     1   --> G_3            
     e( 10 - 10) =      8.25479  eV     1   --> G_4            
     e( 11 - 11) =      9.27294  eV     1   --> G_3            
     e( 12 - 12) =      9.27869  eV     1   --> G_4            
     e( 13 - 13) =      9.49258  eV     1   --> G_4            
     e( 14 - 14) =      9.49466  eV     1   --> G_3            
     e( 15 - 15) =     10.47392  eV     1   --> G_4            
     e( 16 - 16) =     10.48662  eV     1   --> G_3            

 **************************************************************************

 **************************************************************************

                    xk=(   0.00000,   0.18750,   0.18750  )

     Band symmetry, C_s (m)     double point group:

     e(  1 -  2) =     -6.75595  eV     2   --> G_3            
     e(  1 -  2) =     -6.75595  eV     2   --> G_4            
     e(  3 -  3) =      3.12291  eV     1   --> G_3            
     e(  4 -  4) =      3.15421  eV     1   --> G_4            
     e(  5 -  5) =      4.20395  eV     1   --> G_4            
     e(  6 -  6) =      4.25925  eV     1   --> G_3            
     e(  7 -  7) =      4.80819  eV     1   --> G_3            
     e(  8 -  8) =      4.81419  eV     1   --> G_4            
     e(  9 -  9) =      8.04666  eV     1   --> G_3            
     e( 10 - 10) =      8.07654  eV     1   --> G_4            
     e( 11 - 11) =      9.20275  eV     1   --> G_3            
     e( 12 - 12) =      9.21504  eV     1   --> G_4            
     e( 13 - 13) =      9.39362  eV     1   --> G_4            
     e( 14 - 14) =      9.39597  eV     1   --> G_3            
     e( 15 - 15) =     10.17298  eV     1   --> G_4            
     e( 16 - 16) =     10.19352  eV     1   --> G_3            

 **************************************************************************

 **************************************************************************

                    xk=(   0.00000,   0.15000,   0.15000  )

     Band symmetry, C_s (m)     double point group:

     e(  1 -  2) =     -6.83684  eV     2   --> G_3            
     e(  1 -  2) =     -6.83684  eV     2   --> G_4            
     e(  3 -  3) =      3.56372  eV     1   --> G_3            
     e(  4 -  4) =      3.59234  eV     1   --> G_4            
     e(  5 -  5) =      4.41884  eV     1   --> G_4            
     e(  6 -  6) =      4.46792  eV     1   --> G_3            
     e(  7 -  7) =      4.84932  eV     1   --> G_3            
     e(  8 -  8) =      4.85575  eV     1   --> G_4            
     e(  9 -  9) =      7.83638  eV     1   --> G_3            
     e( 10 - 10) =      7.85901  eV     1   --> G_4            
     e( 11 - 11) =      9.16250  eV     1   --> G_3            
     e( 12 - 12) =      9.17835  eV     1   --> G_4            
     e( 13 - 13) =      9.31223  eV     1   --> G_4            
     e( 14 - 14) =      9.31493  eV     1   --> G_3            
     e( 15 - 15) =      9.84332  eV     1   --> G_4            
     e( 16 - 16) =      9.86540  eV     1   --> G_3            

 **************************************************************************

 **************************************************************************

                    xk=(   0.00000,   0.11250,   0.11250  )

     Band symmetry, C_s (m)     double point group:

     e(  1 -  2) =     -6.90071  eV     2   --> G_3            
     e(  1 -  2) =     -6.90071  eV     2   --> G_4            
     e(  3 -  3) =      3.99453  eV     1   --> G_3            
     e(  4 -  4) =      4.01945  eV     1   --> G_4            
     e(  5 -  5) =      4.59593  eV     1   --> G_4            
     e(  6 -  6) =      4.63594  eV     1   --> G_3            
     e(  7 -  7) =      4.88714  eV     1   --> G_3            
     e(  8 -  8) =      4.89302  eV     1   --> G_4            
     e(  9 -  9) =      7.58339  eV     1   --> G_3            
     e( 10 - 10) =      7.59755  eV     1   --> G_4            
     e( 11 - 11) =      9.14685  eV     1   --> G_3            
     e( 12 - 12) =      9.16321  eV     1   --> G_4            
     e( 13 - 13) =      9.24870  eV     1   --> G_4            
     e( 14 - 14) =      9.25193  eV     1   --> G_3            
     e( 15 - 15) =      9.55008  eV     1   --> G_4            
     e( 16 - 16) =      9.56865  eV     1   --> G_3            

 **************************************************************************

 **************************************************************************

                    xk=(   0.00000,   0.07500,   0.07500  )

     Band symmetry, C_s (m)     double point group:

     e(  1 -  2) =     -6.94682  eV     2   --> G_3            
     e(  1 -  2) =     -6.94682  eV     2   --> G_4            
     e(  3 -  3) =      4.37655  eV     1   --> G_3            
     e(  4 -  4) =      4.39428  eV     1   --> G_4            
     e(  5 -  5) =      4.73957  eV     1   --> G_4            
     e(  6 -  6) =      4.76497  eV     1   --> G_3            
     e(  7 -  7) =      4.92658  eV     1   --> G_3            
     e(  8 -  8) =      4.92995  eV     1   --> G_4            
     e(  9 -  9) =      7.30305  eV     1   --> G_3            
     e( 10 - 10) =      7.30918  eV     1   --> G_4            
     e( 11 - 11) =      9.14656  eV     1   --> G_3            
     e( 12 - 12) =      9.16018  eV     1   --> G_4            
     e( 13 - 13) =      9.20407  eV     1   --> G_4            
     e( 14 - 14) =      9.20781  eV     1   --> G_3            
     e( 15 - 15) =      9.33498  eV     1   --> G_4            
     e( 16 - 16) =      9.34693  eV     1   --> G_3            

 **************************************************************************

 **************************************************************************

                    xk=(   0.00000,   0.03750,   0.03750  )

     Band symmetry, C_s (m)     double point group:

     e(  1 -  2) =     -6.97468  eV     2   --> G_3            
     e(  1 -  2) =     -6.97468  eV     2   --> G_4            
     e(  3 -  3) =      4.61735  eV     1   --> G_3            
     e(  4 -  4) =      4.62121  eV     1   --> G_4            
     e(  5 -  5) =      4.88803  eV     1   --> G_4            
     e(  6 -  6) =      4.89331  eV     1   --> G_3            
     e(  7 -  7) =      4.96197  eV     1   --> G_3            
     e(  8 -  8) =      4.96257  eV     1   --> G_4            
     e(  9 -  9) =      7.05451  eV     1   --> G_3            
     e( 10 - 10) =      7.05558  eV     1   --> G_4            
     e( 11 - 11) =      9.14720  eV     1   --> G_3            
     e( 12 - 12) =      9.15233  eV     1   --> G_4            
     e( 13 - 13) =      9.18315  eV     1   --> G_4            
     e( 14 - 14) =      9.18478  eV     1   --> G_3            
     e( 15 - 15) =      9.21346  eV     1   --> G_4            
     e( 16 - 16) =      9.21727  eV     1   --> G_3            

 **************************************************************************

 **************************************************************************

                    xk=(   0.00000,   0.00000,   0.00000  )

     double point group T_d (-43m) 
     there are  8 classes and  3 irreducible representations
     the character table:

       E     -E    8C3   -8C3   3C2  6S4   -6S4  6s_d 
                               -3C2              -6s_d
G_6    2.00 -2.00  1.00 -1.00  0.00  1.41 -1.41  0.00
G_7    2.00 -2.00  1.00 -1.00  0.00 -1.41  1.41  0.00
G_8    4.00 -4.00 -1.00  1.00  0.00  0.00  0.00  0.00

     the symmetry operations in each class and the name of the first element:

     E             1
                                                                 
     -E           -1
                                                                 
     8C3           5    7    8    6   12    9   10   11
                                                                 
     -8C3         -5   -7   -8   -6  -12   -9  -10  -11
                                                                 
      3C2 -3C2     2   -2    3   -3    4   -4
                                                                 
     6S4          15   16   20   19   23   24
                                                                 
     -6S4        -15  -16  -20  -19  -23  -24
                                                                 
     6s_d -6s_d   13  -13  -14   14   17  -17  -18   18   21  -21   22  -22
                                                                 

     Band symmetry, T_d (-43m)  double point group:

     e(  1 -  2) =     -6.98400  eV     2   --> G_6  P_6       
     e(  3 -  4) =      4.67736  eV     2   --> G_7  P_7       
     e(  5 -  8) =      4.97640  eV     4   --> G_8  P_8       
     e(  9 - 10) =      6.94734  eV     2   --> G_6  P_6       
     e( 11 - 12) =      9.13989  eV     2   --> G_7  P_7       
     e( 13 - 16) =      9.18041  eV     4   --> G_8  P_8       

 **************************************************************************

     BANDS        :   1m30.88s CPU   1m27.62s WALL


   This run was terminated on:   7: 2:28   3Jan2025            

=------------------------------------------------------------------------------=
   JOB DONE.
=------------------------------------------------------------------------------=
