
     Program BANDS v.7.0 starts on  3Jan2025 at  5: 0:47 

     This program is part of the open-source Quantum ESPRESSO suite
     for quantum simulation of materials; please cite
         "P. Giannozzi et al., J. Phys.:Condens. Matter 21 395502 (2009);
         "P. Giannozzi et al., J. Phys.:Condens. Matter 29 465901 (2017);
         "P. Giannozzi et al., J. Chem. Phys. 152 154105 (2020);
          URL http://www.quantum-espresso.org", 
     in publications or presentations arising from this work. More details at
     http://www.quantum-espresso.org/quote

     Parallel version (MPI & OpenMP), running on       2 processor cores
     Number of MPI processes:                 1
     Threads/MPI process:                     2

     MPI processes distributed on     1 nodes
     149 MiB available memory on the printing compute node when the environment starts


     Reading xml data from directory:

     ./outputs/alas.save/
     Message from routine volume:
     axis vectors are left-handed
     file Al.pbe-n-kjpaw_psl.1.0.0.UPF: wavefunction(s)  3S 3P renormalized

     IMPORTANT: XC functional enforced from input :
     Exchange-correlation= PBE
                           (   1   4   3   4   0   0   0)
     Any further DFT definition will be discarded
     Please, verify this is what you really want


     G-vector sticks info
     --------------------
     sticks:   dense  smooth     PW     G-vecs:    dense   smooth      PW
     Sum         793     793    241                14553    14553    2397

     Using Slab Decomposition

     Reading collected, re-writing distributed wavefunctions
     high-symmetry point:  0.5000 0.5000 0.5000   x coordinate   0.0000
     high-symmetry point:  0.0000 0.0000 0.0000   x coordinate   0.8660
     high-symmetry point:  0.0000 1.0000 0.0000   x coordinate   1.8660
     high-symmetry point:  0.0000 0.7500 0.7500   x coordinate   2.6566
     high-symmetry point:  0.0000 0.0000 0.0000   x coordinate   3.7173

     Plottable bands (eV) written to file AlAs_bands_w_soc.dat.gnu
     Bands written to file AlAs_bands_w_soc.dat

 **************************************************************************

                    xk=(   0.50000,   0.50000,   0.50000  )

     double point group C_3v (3m)  
     there are  6 classes and  3 irreducible representations
     the character table:

       E     -E    2C3   -2C3  3s_v  -3s_v
                                          
G_4    2.00 -2.00  1.00 -1.00  0.00  0.00
G_5    1.00 -1.00 -1.00  1.00  0.00  0.00
G_6    1.00 -1.00 -1.00  1.00  0.00  0.00

     imaginary part

       E     -E    2C3   -2C3  3s_v  -3s_v
                                          
G_4    0.00  0.00  0.00  0.00  0.00  0.00
G_5    0.00  0.00  0.00  0.00  1.00 -1.00
G_6    0.00  0.00  0.00  0.00 -1.00  1.00

     the symmetry operations in each class and the name of the first element:

     E             1
                                                                 
     -E           -1
                                                                 
     2C3           2    3
                                                                 
     -2C3         -2   -3
                                                                 
     3s_v          4    5   -6
                                                                 
     -3s_v         6   -4   -5
                                                                 

     Band symmetry, C_3v (3m)   double point group:

     e(  1 -  2) =     -5.56711  eV     2   --> G_4   L_6      
     e(  3 -  4) =     -0.69291  eV     2   --> G_4   L_6      
     e(  5 -  8) =      4.05532  eV     4   --> G_4   L_6      
     e(  5 -  8) =      4.05532  eV     4   --> G_5   L_4      
     e(  5 -  8) =      4.05532  eV     4   --> G_6   L_5      
     e(  9 - 10) =      7.01786  eV     2   --> G_4   L_6      
     e( 11 - 14) =      9.55111  eV     4   --> G_4   L_6      
     e( 11 - 14) =      9.55111  eV     4   --> G_5   L_4      
     e( 11 - 14) =      9.55111  eV     4   --> G_6   L_5      
     e( 15 - 16) =     12.68127  eV     2   --> G_4   L_6      

 **************************************************************************

 **************************************************************************

                    xk=(   0.47500,   0.47500,   0.47500  )

     Band symmetry, C_3v (3m)   double point group:

     e(  1 -  2) =     -5.58064  eV     2   --> G_4   L_6      
     e(  3 -  4) =     -0.66560  eV     2   --> G_4   L_6      
     e(  5 -  8) =      4.05904  eV     4   --> G_4   L_6      
     e(  5 -  8) =      4.05904  eV     4   --> G_5   L_4      
     e(  5 -  8) =      4.05904  eV     4   --> G_6   L_5      
     e(  9 - 10) =      7.02320  eV     2   --> G_4   L_6      
     e( 11 - 14) =      9.55656  eV     4   --> G_4   L_6      
     e( 11 - 14) =      9.55656  eV     4   --> G_5   L_4      
     e( 11 - 14) =      9.55656  eV     4   --> G_6   L_5      
     e( 15 - 16) =     12.68353  eV     2   --> G_4   L_6      

 **************************************************************************

 **************************************************************************

                    xk=(   0.45000,   0.45000,   0.45000  )

     Band symmetry, C_3v (3m)   double point group:

     e(  1 -  2) =     -5.62020  eV     2   --> G_4   L_6      
     e(  3 -  4) =     -0.58475  eV     2   --> G_4   L_6      
     e(  5 -  8) =      4.07016  eV     4   --> G_4   L_6      
     e(  5 -  8) =      4.07016  eV     4   --> G_5   L_4      
     e(  5 -  8) =      4.07016  eV     4   --> G_6   L_5      
     e(  9 - 10) =      7.03918  eV     2   --> G_4   L_6      
     e( 11 - 14) =      9.57258  eV     4   --> G_4   L_6      
     e( 11 - 14) =      9.57258  eV     4   --> G_5   L_4      
     e( 11 - 14) =      9.57258  eV     4   --> G_6   L_5      
     e( 15 - 16) =     12.68862  eV     2   --> G_4   L_6      

 **************************************************************************

 **************************************************************************

                    xk=(   0.42500,   0.42500,   0.42500  )

     Band symmetry, C_3v (3m)   double point group:

     e(  1 -  2) =     -5.68287  eV     2   --> G_4   L_6      
     e(  3 -  4) =     -0.45338  eV     2   --> G_4   L_6      
     e(  5 -  8) =      4.08861  eV     4   --> G_4   L_6      
     e(  5 -  8) =      4.08861  eV     4   --> G_5   L_4      
     e(  5 -  8) =      4.08861  eV     4   --> G_6   L_5      
     e(  9 - 10) =      7.06566  eV     2   --> G_4   L_6      
     e( 11 - 14) =      9.59825  eV     4   --> G_4   L_6      
     e( 11 - 14) =      9.59825  eV     4   --> G_5   L_4      
     e( 11 - 14) =      9.59825  eV     4   --> G_6   L_5      
     e( 15 - 16) =     12.69098  eV     2   --> G_4   L_6      

 **************************************************************************

 **************************************************************************

                    xk=(   0.40000,   0.40000,   0.40000  )

     Band symmetry, C_3v (3m)   double point group:

     e(  1 -  2) =     -5.76453  eV     2   --> G_4   L_6      
     e(  3 -  4) =     -0.27583  eV     2   --> G_4   L_6      
     e(  5 -  8) =      4.11424  eV     4   --> G_4   L_6      
     e(  5 -  8) =      4.11424  eV     4   --> G_5   L_4      
     e(  5 -  8) =      4.11424  eV     4   --> G_6   L_5      
     e(  9 - 10) =      7.10239  eV     2   --> G_4   L_6      
     e( 11 - 14) =      9.63190  eV     4   --> G_4   L_6      
     e( 11 - 14) =      9.63190  eV     4   --> G_5   L_4      
     e( 11 - 14) =      9.63190  eV     4   --> G_6   L_5      
     e( 15 - 16) =     12.67935  eV     2   --> G_4   L_6      

 **************************************************************************

 **************************************************************************

                    xk=(   0.37500,   0.37500,   0.37500  )

     Band symmetry, C_3v (3m)   double point group:

     e(  1 -  2) =     -5.86049  eV     2   --> G_4   L_6      
     e(  3 -  4) =     -0.05705  eV     2   --> G_4   L_6      
     e(  5 -  8) =      4.14682  eV     4   --> G_4   L_6      
     e(  5 -  8) =      4.14682  eV     4   --> G_5   L_4      
     e(  5 -  8) =      4.14682  eV     4   --> G_6   L_5      
     e(  9 - 10) =      7.14897  eV     2   --> G_4   L_6      
     e( 11 - 14) =      9.67105  eV     4   --> G_4   L_6      
     e( 11 - 14) =      9.67105  eV     4   --> G_5   L_4      
     e( 11 - 14) =      9.67105  eV     4   --> G_6   L_5      
     e( 15 - 16) =     12.63416  eV     2   --> G_4   L_6      

 **************************************************************************

 **************************************************************************

                    xk=(   0.35000,   0.35000,   0.35000  )

     Band symmetry, C_3v (3m)   double point group:

     e(  1 -  2) =     -5.96612  eV     2   --> G_4   L_6      
     e(  3 -  4) =      0.19794  eV     2   --> G_4   L_6      
     e(  5 -  8) =      4.18604  eV     4   --> G_4   L_6      
     e(  5 -  8) =      4.18604  eV     4   --> G_5   L_4      
     e(  5 -  8) =      4.18604  eV     4   --> G_6   L_5      
     e(  9 - 10) =      7.20485  eV     2   --> G_4   L_6      
     e( 11 - 14) =      9.71224  eV     4   --> G_4   L_6      
     e( 11 - 14) =      9.71224  eV     4   --> G_5   L_4      
     e( 11 - 14) =      9.71224  eV     4   --> G_6   L_5      
     e( 15 - 16) =     12.52783  eV     2   --> G_4   L_6      

 **************************************************************************

 **************************************************************************

                    xk=(   0.32500,   0.32500,   0.32500  )

     Band symmetry, C_3v (3m)   double point group:

     e(  1 -  2) =     -6.07718  eV     2   --> G_4   L_6      
     e(  3 -  4) =      0.48440  eV     2   --> G_4   L_6      
     e(  5 -  8) =      4.23150  eV     4   --> G_4   L_6      
     e(  5 -  8) =      4.23150  eV     4   --> G_5   L_4      
     e(  5 -  8) =      4.23150  eV     4   --> G_6   L_5      
     e(  9 - 10) =      7.26915  eV     2   --> G_4   L_6      
     e( 11 - 14) =      9.75092  eV     4   --> G_4   L_6      
     e( 11 - 14) =      9.75092  eV     4   --> G_5   L_4      
     e( 11 - 14) =      9.75092  eV     4   --> G_6   L_5      
     e( 15 - 16) =     12.33686  eV     2   --> G_4   L_6      

 **************************************************************************

 **************************************************************************

                    xk=(   0.30000,   0.30000,   0.30000  )

     Band symmetry, C_3v (3m)   double point group:

     e(  1 -  2) =     -6.19003  eV     2   --> G_4   L_6      
     e(  3 -  4) =      0.79806  eV     2   --> G_4   L_6      
     e(  5 -  8) =      4.28265  eV     4   --> G_4   L_6      
     e(  5 -  8) =      4.28265  eV     4   --> G_5   L_4      
     e(  5 -  8) =      4.28265  eV     4   --> G_6   L_5      
     e(  9 - 10) =      7.34065  eV     2   --> G_4   L_6      
     e( 11 - 14) =      9.78147  eV     4   --> G_4   L_6      
     e( 11 - 14) =      9.78147  eV     4   --> G_5   L_4      
     e( 11 - 14) =      9.78147  eV     4   --> G_6   L_5      
     e( 15 - 16) =     12.06135  eV     2   --> G_4   L_6      

 **************************************************************************

 **************************************************************************

                    xk=(   0.27500,   0.27500,   0.27500  )

     Band symmetry, C_3v (3m)   double point group:

     e(  1 -  2) =     -6.30161  eV     2   --> G_4   L_6      
     e(  3 -  4) =      1.13506  eV     2   --> G_4   L_6      
     e(  5 -  8) =      4.33882  eV     4   --> G_4   L_6      
     e(  5 -  8) =      4.33882  eV     4   --> G_5   L_4      
     e(  5 -  8) =      4.33882  eV     4   --> G_6   L_5      
     e(  9 - 10) =      7.41752  eV     2   --> G_4   L_6      
     e( 11 - 14) =      9.79758  eV     4   --> G_4   L_6      
     e( 11 - 14) =      9.79758  eV     4   --> G_5   L_4      
     e( 11 - 14) =      9.79758  eV     4   --> G_6   L_5      
     e( 15 - 16) =     11.72386  eV     2   --> G_4   L_6      

 **************************************************************************

 **************************************************************************

                    xk=(   0.25000,   0.25000,   0.25000  )

     Band symmetry, C_3v (3m)   double point group:

     e(  1 -  2) =     -6.40942  eV     2   --> G_4   L_6      
     e(  3 -  4) =      1.49189  eV     2   --> G_4   L_6      
     e(  5 -  8) =      4.39914  eV     4   --> G_4   L_6      
     e(  5 -  8) =      4.39914  eV     4   --> G_5   L_4      
     e(  5 -  8) =      4.39914  eV     4   --> G_6   L_5      
     e(  9 - 10) =      7.49707  eV     2   --> G_4   L_6      
     e( 11 - 14) =      9.79328  eV     4   --> G_4   L_6      
     e( 11 - 14) =      9.79328  eV     4   --> G_5   L_4      
     e( 11 - 14) =      9.79328  eV     4   --> G_6   L_5      
     e( 15 - 16) =     11.35070  eV     2   --> G_4   L_6      

 **************************************************************************

 **************************************************************************

                    xk=(   0.22500,   0.22500,   0.22500  )

     Band symmetry, C_3v (3m)   double point group:

     e(  1 -  2) =     -6.51143  eV     2   --> G_4   L_6      
     e(  3 -  4) =      1.86524  eV     2   --> G_4   L_6      
     e(  5 -  8) =      4.46252  eV     4   --> G_4   L_6      
     e(  5 -  8) =      4.46252  eV     4   --> G_5   L_4      
     e(  5 -  8) =      4.46252  eV     4   --> G_6   L_5      
     e(  9 - 10) =      7.57519  eV     2   --> G_4   L_6      
     e( 11 - 14) =      9.76451  eV     4   --> G_4   L_6      
     e( 11 - 14) =      9.76451  eV     4   --> G_5   L_4      
     e( 11 - 14) =      9.76451  eV     4   --> G_6   L_5      
     e( 15 - 16) =     10.96241  eV     2   --> G_4   L_6      

 **************************************************************************

 **************************************************************************

                    xk=(   0.20000,   0.20000,   0.20000  )

     Band symmetry, C_3v (3m)   double point group:

     e(  1 -  2) =     -6.60603  eV     2   --> G_4   L_6      
     e(  3 -  4) =      2.25181  eV     2   --> G_4   L_6      
     e(  5 -  8) =      4.52765  eV     4   --> G_4   L_6      
     e(  5 -  8) =      4.52765  eV     4   --> G_5   L_4      
     e(  5 -  8) =      4.52765  eV     4   --> G_6   L_5      
     e(  9 - 10) =      7.64552  eV     2   --> G_4   L_6      
     e( 11 - 14) =      9.71074  eV     4   --> G_4   L_6      
     e( 11 - 14) =      9.71074  eV     4   --> G_5   L_4      
     e( 11 - 14) =      9.71074  eV     4   --> G_6   L_5      
     e( 15 - 16) =     10.57478  eV     2   --> G_4   L_6      

 **************************************************************************

 **************************************************************************

                    xk=(   0.17500,   0.17500,   0.17500  )

     Band symmetry, C_3v (3m)   double point group:

     e(  1 -  2) =     -6.69193  eV     2   --> G_4   L_6      
     e(  3 -  4) =      2.64804  eV     2   --> G_4   L_6      
     e(  5 -  8) =      4.59294  eV     4   --> G_4   L_6      
     e(  5 -  8) =      4.59294  eV     4   --> G_5   L_4      
     e(  5 -  8) =      4.59294  eV     4   --> G_6   L_5      
     e(  9 - 10) =      7.69811  eV     2   --> G_4   L_6      
     e( 11 - 14) =      9.63565  eV     4   --> G_4   L_6      
     e( 11 - 14) =      9.63565  eV     4   --> G_5   L_4      
     e( 11 - 14) =      9.63565  eV     4   --> G_6   L_5      
     e( 15 - 16) =     10.20286  eV     2   --> G_4   L_6      

 **************************************************************************

 **************************************************************************

                    xk=(   0.15000,   0.15000,   0.15000  )

     Band symmetry, C_3v (3m)   double point group:

     e(  1 -  2) =     -6.76810  eV     2   --> G_4   L_6      
     e(  3 -  4) =      3.04973  eV     2   --> G_4   L_6      
     e(  5 -  8) =      4.65651  eV     4   --> G_4   L_6      
     e(  5 -  8) =      4.65651  eV     4   --> G_5   L_4      
     e(  5 -  8) =      4.65651  eV     4   --> G_6   L_5      
     e(  9 - 10) =      7.71771  eV     2   --> G_4   L_6      
     e( 11 - 14) =      9.54631  eV     4   --> G_4   L_6      
     e( 11 - 14) =      9.54631  eV     4   --> G_5   L_4      
     e( 11 - 14) =      9.54631  eV     4   --> G_6   L_5      
     e( 15 - 16) =      9.86460  eV     2   --> G_4   L_6      

 **************************************************************************

 **************************************************************************

                    xk=(   0.12500,   0.12500,   0.12500  )

     Band symmetry, C_3v (3m)   double point group:

     e(  1 -  2) =     -6.83373  eV     2   --> G_4   L_6      
     e(  3 -  4) =      3.45139  eV     2   --> G_4   L_6      
     e(  5 -  8) =      4.71623  eV     4   --> G_4   L_6      
     e(  5 -  8) =      4.71623  eV     4   --> G_5   L_4      
     e(  5 -  8) =      4.71623  eV     4   --> G_6   L_5      
     e(  9 - 10) =      7.68381  eV     2   --> G_4   L_6      
     e( 11 - 14) =      9.45154  eV     4   --> G_4   L_6      
     e( 11 - 14) =      9.45154  eV     4   --> G_5   L_4      
     e( 11 - 14) =      9.45154  eV     4   --> G_6   L_5      
     e( 15 - 16) =      9.58250  eV     2   --> G_4   L_6      

 **************************************************************************

 **************************************************************************

                    xk=(   0.10000,   0.10000,   0.10000  )

     Band symmetry, C_3v (3m)   double point group:

     e(  1 -  2) =     -6.88820  eV     2   --> G_4   L_6      
     e(  3 -  4) =      3.84500  eV     2   --> G_4   L_6      
     e(  5 -  8) =      4.76977  eV     4   --> G_4   L_6      
     e(  5 -  8) =      4.76977  eV     4   --> G_5   L_4      
     e(  5 -  8) =      4.76977  eV     4   --> G_6   L_5      
     e(  9 - 10) =      7.57836  eV     2   --> G_4   L_6      
     e( 11 - 14) =      9.36025  eV     4   --> G_4   L_6      
     e( 11 - 14) =      9.36025  eV     4   --> G_5   L_4      
     e( 11 - 14) =      9.36025  eV     4   --> G_6   L_5      
     e( 15 - 16) =      9.37765  eV     2   --> G_4   L_6      

 **************************************************************************

 **************************************************************************

                    xk=(   0.07500,   0.07500,   0.07500  )

     Band symmetry, C_3v (3m)   double point group:

     e(  1 -  2) =     -6.93102  eV     2   --> G_4   L_6      
     e(  3 -  4) =      4.21739  eV     2   --> G_4   L_6      
     e(  5 -  8) =      4.81473  eV     4   --> G_4   L_6      
     e(  5 -  8) =      4.81473  eV     4   --> G_5   L_4      
     e(  5 -  8) =      4.81473  eV     4   --> G_6   L_5      
     e(  9 - 10) =      7.40399  eV     2   --> G_4   L_6      
     e( 11 - 12) =      9.25448  eV     2   --> G_4   L_6      
     e( 13 - 16) =      9.28042  eV     4   --> G_4   L_6      
     e( 13 - 16) =      9.28042  eV     4   --> G_5   L_4      
     e( 13 - 16) =      9.28042  eV     4   --> G_6   L_5      

 **************************************************************************

 **************************************************************************

                    xk=(   0.05000,   0.05000,   0.05000  )

     Band symmetry, C_3v (3m)   double point group:

     e(  1 -  2) =     -6.96185  eV     2   --> G_4   L_6      
     e(  3 -  4) =      4.54507  eV     2   --> G_4   L_6      
     e(  5 -  8) =      4.84882  eV     4   --> G_4   L_6      
     e(  5 -  8) =      4.84882  eV     4   --> G_5   L_4      
     e(  5 -  8) =      4.84882  eV     4   --> G_6   L_5      
     e(  9 - 10) =      7.19606  eV     2   --> G_4   L_6      
     e( 11 - 12) =      9.19464  eV     2   --> G_4   L_6      
     e( 13 - 16) =      9.21855  eV     4   --> G_4   L_6      
     e( 13 - 16) =      9.21855  eV     4   --> G_5   L_4      
     e( 13 - 16) =      9.21855  eV     4   --> G_6   L_5      

 **************************************************************************

 **************************************************************************

                    xk=(   0.02500,   0.02500,   0.02500  )

     Band symmetry, C_3v (3m)   double point group:

     e(  1 -  2) =     -6.98044  eV     2   --> G_4   L_6      
     e(  3 -  4) =      4.78547  eV     2   --> G_4   L_6      
     e(  5 -  8) =      4.87014  eV     4   --> G_4   L_6      
     e(  5 -  8) =      4.87014  eV     4   --> G_5   L_4      
     e(  5 -  8) =      4.87014  eV     4   --> G_6   L_5      
     e(  9 - 10) =      7.01761  eV     2   --> G_4   L_6      
     e( 11 - 12) =      9.17158  eV     2   --> G_4   L_6      
     e( 13 - 16) =      9.17946  eV     4   --> G_4   L_6      
     e( 13 - 16) =      9.17946  eV     4   --> G_5   L_4      
     e( 13 - 16) =      9.17946  eV     4   --> G_6   L_5      

 **************************************************************************

 **************************************************************************

                    xk=(   0.00000,   0.00000,   0.00000  )

     double point group T_d (-43m) 
     there are  8 classes and  3 irreducible representations
     the character table:

       E     -E    8C3   -8C3   3C2  6S4   -6S4  6s_d 
                               -3C2              -6s_d
G_6    2.00 -2.00  1.00 -1.00  0.00  1.41 -1.41  0.00
G_7    2.00 -2.00  1.00 -1.00  0.00 -1.41  1.41  0.00
G_8    4.00 -4.00 -1.00  1.00  0.00  0.00  0.00  0.00

     the symmetry operations in each class and the name of the first element:

     E             1
                                                                 
     -E           -1
                                                                 
     8C3           5    7    8    6   12    9   10   11
                                                                 
     -8C3         -5   -7   -8   -6  -12   -9  -10  -11
                                                                 
      3C2 -3C2     2   -2    3   -3    4   -4
                                                                 
     6S4          15   16   20   19   23   24
                                                                 
     -6S4        -15  -16  -20  -19  -23  -24
                                                                 
     6s_d -6s_d   13  -13  -14   14   17  -17  -18   18   21  -21   22  -22
                                                                 

     Band symmetry, T_d (-43m)  double point group:

     e(  1 -  2) =     -6.98665  eV     2   --> G_6  P_6       
     e(  3 -  8) =      4.87739  eV     6   --> G_7  P_7       
     e(  3 -  8) =      4.87739  eV     6   --> G_8  P_8       
     e(  9 - 10) =      6.94466  eV     2   --> G_6  P_6       
     e( 11 - 16) =      9.16609  eV     6   --> G_7  P_7       
     e( 11 - 16) =      9.16609  eV     6   --> G_8  P_8       

 **************************************************************************

 **************************************************************************

                    xk=(   0.00000,   0.05000,   0.00000  )

     double point group C_2v (mm2) 
     there are  5 classes and  1 irreducible representations
     the character table:

       E     -E     C2    s_v   s_v'
                   -C2   -s_v  -s_v'
G_5    2.00 -2.00  0.00  0.00  0.00

     the symmetry operations in each class and the name of the first element:

     E             1
                                                                 
     -E           -1
                                                                 
      C2  -C2      2   -2
                                                                 
      s_v -s_v     4   -4
                                                                 
      s_v'-s_v'    3   -3
                                                                 

     Band symmetry, C_2v (mm2)  double point group:

     e(  1 -  2) =     -6.97836  eV     2   --> G_5  D_5       
     e(  3 -  4) =      4.78401  eV     2   --> G_5  D_5       
     e(  5 -  8) =      4.85303  eV     4   -->   2 G_5  D_5       
     e(  9 - 10) =      7.04294  eV     2   --> G_5  D_5       
     e( 11 - 12) =      9.13401  eV     2   --> G_5  D_5       
     e( 13 - 16) =      9.20329  eV     4   -->   2 G_5  D_5       

 **************************************************************************

 **************************************************************************

                    xk=(   0.00000,   0.10000,   0.00000  )

     Band symmetry, C_2v (mm2)  double point group:

     e(  1 -  2) =     -6.95357  eV     2   --> G_5  D_5       
     e(  3 -  4) =      4.54454  eV     2   --> G_5  D_5       
     e(  5 -  8) =      4.78273  eV     4   -->   2 G_5  D_5       
     e(  9 - 10) =      7.29572  eV     2   --> G_5  D_5       
     e( 11 - 12) =      9.04195  eV     2   --> G_5  D_5       
     e( 13 - 16) =      9.31202  eV     4   -->   2 G_5  D_5       

 **************************************************************************

 **************************************************************************

                    xk=(   0.00000,   0.15000,   0.00000  )

     Band symmetry, C_2v (mm2)  double point group:

     e(  1 -  2) =     -6.91243  eV     2   --> G_5  D_5       
     e(  3 -  4) =      4.22574  eV     2   --> G_5  D_5       
     e(  5 -  8) =      4.67377  eV     4   -->   2 G_5  D_5       
     e(  9 - 10) =      7.63173  eV     2   --> G_5  D_5       
     e( 11 - 12) =      8.90066  eV     2   --> G_5  D_5       
     e( 13 - 16) =      9.48475  eV     4   -->   2 G_5  D_5       

 **************************************************************************

 **************************************************************************

                    xk=(   0.00000,   0.20000,   0.00000  )

     Band symmetry, C_2v (mm2)  double point group:

     e(  1 -  2) =     -6.85522  eV     2   --> G_5  D_5       
     e(  3 -  4) =      3.87027  eV     2   --> G_5  D_5       
     e(  5 -  8) =      4.53564  eV     4   -->   2 G_5  D_5       
     e(  9 - 10) =      7.99900  eV     2   --> G_5  D_5       
     e( 11 - 12) =      8.72356  eV     2   --> G_5  D_5       
     e( 13 - 16) =      9.71162  eV     4   -->   2 G_5  D_5       

 **************************************************************************

 **************************************************************************

                    xk=(   0.00000,   0.25000,   0.00000  )

     Band symmetry, C_2v (mm2)  double point group:

     e(  1 -  2) =     -6.78237  eV     2   --> G_5  D_5       
     e(  3 -  4) =      3.49955  eV     2   --> G_5  D_5       
     e(  5 -  8) =      4.37789  eV     4   -->   2 G_5  D_5       
     e(  9 - 10) =      8.35747  eV     2   --> G_5  D_5       
     e( 11 - 12) =      8.52465  eV     2   --> G_5  D_5       
     e( 13 - 16) =      9.98260  eV     4   -->   2 G_5  D_5       

 **************************************************************************

 **************************************************************************

                    xk=(   0.00000,   0.30000,   0.00000  )

     Band symmetry, C_2v (mm2)  double point group:

     e(  1 -  2) =     -6.69444  eV     2   --> G_5  D_5       
     e(  3 -  4) =      3.12434  eV     2   --> G_5  D_5       
     e(  5 -  8) =      4.20889  eV     4   -->   2 G_5  D_5       
     e(  9 - 10) =      8.30803  eV     2   --> G_5  D_5       
     e( 11 - 12) =      8.67174  eV     2   --> G_5  D_5       
     e( 13 - 16) =     10.28872  eV     4   -->   2 G_5  D_5       

 **************************************************************************

 **************************************************************************

                    xk=(   0.00000,   0.35000,   0.00000  )

     Band symmetry, C_2v (mm2)  double point group:

     e(  1 -  2) =     -6.59215  eV     2   --> G_5  D_5       
     e(  3 -  4) =      2.75042  eV     2   --> G_5  D_5       
     e(  5 -  8) =      4.03542  eV     4   -->   2 G_5  D_5       
     e(  9 - 10) =      8.09021  eV     2   --> G_5  D_5       
     e( 11 - 12) =      8.87974  eV     2   --> G_5  D_5       
     e( 13 - 16) =     10.62258  eV     4   -->   2 G_5  D_5       

 **************************************************************************

 **************************************************************************

                    xk=(   0.00000,   0.40000,   0.00000  )

     Band symmetry, C_2v (mm2)  double point group:

     e(  1 -  2) =     -6.47647  eV     2   --> G_5  D_5       
     e(  3 -  4) =      2.38128  eV     2   --> G_5  D_5       
     e(  5 -  8) =      3.86280  eV     4   -->   2 G_5  D_5       
     e(  9 - 10) =      7.87290  eV     2   --> G_5  D_5       
     e( 11 - 12) =      8.93704  eV     2   --> G_5  D_5       
     e( 13 - 16) =     10.97821  eV     4   -->   2 G_5  D_5       

 **************************************************************************

 **************************************************************************

                    xk=(   0.00000,   0.45000,   0.00000  )

     Band symmetry, C_2v (mm2)  double point group:

     e(  1 -  2) =     -6.34859  eV     2   --> G_5  D_5       
     e(  3 -  4) =      2.01937  eV     2   --> G_5  D_5       
     e(  5 -  8) =      3.69508  eV     4   -->   2 G_5  D_5       
     e(  9 - 10) =      7.66066  eV     2   --> G_5  D_5       
     e( 11 - 12) =      8.84389  eV     2   --> G_5  D_5       
     e( 13 - 16) =     11.35092  eV     4   -->   2 G_5  D_5       

 **************************************************************************

 **************************************************************************

                    xk=(   0.00000,   0.50000,   0.00000  )

     Band symmetry, C_2v (mm2)  double point group:

     e(  1 -  2) =     -6.21005  eV     2   --> G_5  D_5       
     e(  3 -  4) =      1.66677  eV     2   --> G_5  D_5       
     e(  5 -  8) =      3.53538  eV     4   -->   2 G_5  D_5       
     e(  9 - 10) =      7.45658  eV     2   --> G_5  D_5       
     e( 11 - 12) =      8.65153  eV     2   --> G_5  D_5       
     e( 13 - 16) =     11.73697  eV     4   -->   2 G_5  D_5       

 **************************************************************************

 **************************************************************************

                    xk=(   0.00000,   0.55000,   0.00000  )

     Band symmetry, C_2v (mm2)  double point group:

     e(  1 -  2) =     -6.06279  eV     2   --> G_5  D_5       
     e(  3 -  4) =      1.32563  eV     2   --> G_5  D_5       
     e(  5 -  8) =      3.38606  eV     4   -->   2 G_5  D_5       
     e(  9 - 10) =      7.26293  eV     2   --> G_5  D_5       
     e( 11 - 12) =      8.41512  eV     2   --> G_5  D_5       
     e( 13 - 16) =     12.13340  eV     4   -->   2 G_5  D_5       

 **************************************************************************

 **************************************************************************

                    xk=(   0.00000,   0.60000,   0.00000  )

     Band symmetry, C_2v (mm2)  double point group:

     e(  1 -  2) =     -5.90927  eV     2   --> G_5  D_5       
     e(  3 -  4) =      0.99842  eV     2   --> G_5  D_5       
     e(  5 -  8) =      3.24895  eV     4   -->   2 G_5  D_5       
     e(  9 - 10) =      7.08153  eV     2   --> G_5  D_5       
     e( 11 - 12) =      8.17105  eV     2   --> G_5  D_5       
     e( 13 - 16) =     12.53765  eV     4   -->   2 G_5  D_5       

 **************************************************************************

 **************************************************************************

                    xk=(   0.00000,   0.65000,   0.00000  )

     Band symmetry, C_2v (mm2)  double point group:

     e(  1 -  2) =     -5.75262  eV     2   --> G_5  D_5       
     e(  3 -  4) =      0.68828  eV     2   --> G_5  D_5       
     e(  5 -  8) =      3.12545  eV     4   -->   2 G_5  D_5       
     e(  9 - 10) =      6.91407  eV     2   --> G_5  D_5       
     e( 11 - 12) =      7.93986  eV     2   --> G_5  D_5       
     e( 13 - 16) =     12.94736  eV     4   -->   2 G_5  D_5       

 **************************************************************************

 **************************************************************************

                    xk=(   0.00000,   0.70000,   0.00000  )

     Band symmetry, C_2v (mm2)  double point group:

     e(  1 -  2) =     -5.59680  eV     2   --> G_5  D_5       
     e(  3 -  4) =      0.39914  eV     2   --> G_5  D_5       
     e(  5 -  8) =      3.01665  eV     4   -->   2 G_5  D_5       
     e(  9 - 10) =      6.76232  eV     2   --> G_5  D_5       
     e( 11 - 12) =      7.73264  eV     2   --> G_5  D_5       
     e( 13 - 16) =     13.35986  eV     4   -->   2 G_5  D_5       

 **************************************************************************

 **************************************************************************

                    xk=(   0.00000,   0.75000,   0.00000  )

     Band symmetry, C_2v (mm2)  double point group:

     e(  1 -  2) =     -5.44674  eV     2   --> G_5  D_5       
     e(  3 -  4) =      0.13601  eV     2   --> G_5  D_5       
     e(  5 -  8) =      2.92339  eV     4   -->   2 G_5  D_5       
     e(  9 - 10) =      6.62831  eV     2   --> G_5  D_5       
     e( 11 - 12) =      7.55508  eV     2   --> G_5  D_5       
     e( 13 - 16) =     13.77143  eV     4   -->   2 G_5  D_5       

 **************************************************************************

 **************************************************************************

                    xk=(   0.00000,   0.80000,   0.00000  )

     Band symmetry, C_2v (mm2)  double point group:

     e(  1 -  2) =     -5.30849  eV     2   --> G_5  D_5       
     e(  3 -  4) =     -0.09501  eV     2   --> G_5  D_5       
     e(  5 -  8) =      2.84630  eV     4   -->   2 G_5  D_5       
     e(  9 - 10) =      6.51430  eV     2   --> G_5  D_5       
     e( 11 - 12) =      7.40971  eV     2   --> G_5  D_5       
     e( 13 - 16) =     14.17595  eV     4   -->   2 G_5  D_5       

 **************************************************************************

 **************************************************************************

                    xk=(   0.00000,   0.85000,   0.00000  )

     Band symmetry, C_2v (mm2)  double point group:

     e(  1 -  2) =     -5.18910  eV     2   --> G_5  D_5       
     e(  3 -  4) =     -0.28676  eV     2   --> G_5  D_5       
     e(  5 -  8) =      2.78588  eV     4   -->   2 G_5  D_5       
     e(  9 - 10) =      6.42261  eV     2   --> G_5  D_5       
     e( 11 - 12) =      7.29727  eV     2   --> G_5  D_5       
     e( 13 - 16) =     14.56196  eV     4   -->   2 G_5  D_5       

 **************************************************************************

 **************************************************************************

                    xk=(   0.00000,   0.90000,   0.00000  )

     Band symmetry, C_2v (mm2)  double point group:

     e(  1 -  2) =     -5.09617  eV     2   --> G_5  D_5       
     e(  3 -  4) =     -0.43149  eV     2   --> G_5  D_5       
     e(  5 -  8) =      2.74249  eV     4   -->   2 G_5  D_5       
     e(  9 - 10) =      6.35538  eV     2   --> G_5  D_5       
     e( 11 - 12) =      7.21755  eV     2   --> G_5  D_5       
     e( 13 - 16) =     14.90651  eV     4   -->   2 G_5  D_5       

 **************************************************************************

 **************************************************************************

                    xk=(   0.00000,   0.95000,   0.00000  )

     Band symmetry, C_2v (mm2)  double point group:

     e(  1 -  2) =     -5.03685  eV     2   --> G_5  D_5       
     e(  3 -  4) =     -0.52193  eV     2   --> G_5  D_5       
     e(  5 -  8) =      2.71636  eV     4   -->   2 G_5  D_5       
     e(  9 - 10) =      6.31433  eV     2   --> G_5  D_5       
     e( 11 - 12) =      7.17002  eV     2   --> G_5  D_5       
     e( 13 - 16) =     15.16406  eV     4   -->   2 G_5  D_5       

 **************************************************************************

 **************************************************************************

                    xk=(   0.00000,   1.00000,   0.00000  )

     double point group D_2d (-42m)
     there are  7 classes and  2 irreducible representations
     the character table:

       E     -E    2S4   -2S4  C2    2C2'  2s_d 
                               -C2   -2C2' -2s_d
G_6    2.00 -2.00  1.41 -1.41  0.00  0.00  0.00
G_7    2.00 -2.00 -1.41  1.41  0.00  0.00  0.00

     the symmetry operations in each class and the name of the first element:

     E             1
                                                                 
     -E           -1
                                                                 
     2S4           7    8
                                                                 
     -2S4         -7   -8
                                                                 
     C2   -C2      3   -3
                                                                 
     2C2' -2C2'    2   -2    4   -4
                                                                 
     2s_d -2s_d    5    6   -5   -6
                                                                 

     Band symmetry, D_2d (-42m) double point group:

     e(  1 -  2) =     -5.01642  eV     2   --> G_7  X_7  W_7  
     e(  3 -  4) =     -0.55274  eV     2   --> G_6  X_6  W_6  
     e(  5 -  8) =      2.70763  eV     4   --> G_6  X_6  W_6  
     e(  5 -  8) =      2.70763  eV     4   --> G_7  X_7  W_7  
     e(  9 - 10) =      6.30052  eV     2   --> G_7  X_7  W_7  
     e( 11 - 12) =      7.15423  eV     2   --> G_6  X_6  W_6  
     e( 13 - 16) =     15.26408  eV     4   --> G_6  X_6  W_6  
     e( 13 - 16) =     15.26408  eV     4   --> G_7  X_7  W_7  

 **************************************************************************

 **************************************************************************

                    xk=(   0.00000,   0.98750,   0.03750  )

     double point group C_1 (1)    
     there are  2 classes and  1 irreducible representations
     the character table:

       E     -E   
                  
G_2    1.00 -1.00

     the symmetry operations in each class and the name of the first element:

     E             1
                                                                 
     -E           -1
                                                                 

     Band symmetry, C_1 (1)     double point group:

     e(  1 -  2) =     -5.01727  eV     2   -->   2 G_2            
     e(  3 -  4) =     -0.54714  eV     2   -->   2 G_2            
     e(  5 -  6) =      2.69243  eV     2   -->   2 G_2            
     e(  7 -  8) =      2.69624  eV     2   -->   2 G_2            
     e(  9 - 10) =      6.32926  eV     2   -->   2 G_2            
     e( 11 - 12) =      7.18399  eV     2   -->   2 G_2            
     e( 13 - 14) =     15.17582  eV     2   -->   2 G_2            
     e( 15 - 16) =     15.24871  eV     2   -->   2 G_2            

 **************************************************************************

 **************************************************************************

                    xk=(   0.00000,   0.97500,   0.07500  )

     Band symmetry, C_1 (1)     double point group:

     e(  1 -  2) =     -5.01974  eV     2   -->   2 G_2            
     e(  3 -  4) =     -0.53062  eV     2   -->   2 G_2            
     e(  5 -  6) =      2.64808  eV     2   -->   2 G_2            
     e(  7 -  8) =      2.66386  eV     2   -->   2 G_2            
     e(  9 - 10) =      6.41401  eV     2   -->   2 G_2            
     e( 11 - 12) =      7.27179  eV     2   -->   2 G_2            
     e( 13 - 14) =     14.92094  eV     2   -->   2 G_2            
     e( 15 - 16) =     15.19949  eV     2   -->   2 G_2            

 **************************************************************************

 **************************************************************************

                    xk=(   0.00000,   0.96250,   0.11250  )

     Band symmetry, C_1 (1)     double point group:

     e(  1 -  2) =     -5.02371  eV     2   -->   2 G_2            
     e(  3 -  4) =     -0.50400  eV     2   -->   2 G_2            
     e(  5 -  6) =      2.57806  eV     2   -->   2 G_2            
     e(  7 -  8) =      2.61530  eV     2   -->   2 G_2            
     e(  9 - 10) =      6.55084  eV     2   -->   2 G_2            
     e( 11 - 12) =      7.41364  eV     2   -->   2 G_2            
     e( 13 - 14) =     14.53217  eV     2   -->   2 G_2            
     e( 15 - 16) =     15.10490  eV     2   -->   2 G_2            

 **************************************************************************

 **************************************************************************

                    xk=(   0.00000,   0.95000,   0.15000  )

     Band symmetry, C_1 (1)     double point group:

     e(  1 -  2) =     -5.02895  eV     2   -->   2 G_2            
     e(  3 -  4) =     -0.46867  eV     2   -->   2 G_2            
     e(  5 -  6) =      2.48742  eV     2   -->   2 G_2            
     e(  7 -  8) =      2.55715  eV     2   -->   2 G_2            
     e(  9 - 10) =      6.73424  eV     2   -->   2 G_2            
     e( 11 - 12) =      7.60397  eV     2   -->   2 G_2            
     e( 13 - 14) =     14.05626  eV     2   -->   2 G_2            
     e( 15 - 16) =     14.94272  eV     2   -->   2 G_2            

 **************************************************************************

 **************************************************************************

                    xk=(   0.00000,   0.93750,   0.18750  )

     Band symmetry, C_1 (1)     double point group:

     e(  1 -  2) =     -5.03517  eV     2   -->   2 G_2            
     e(  3 -  4) =     -0.42655  eV     2   -->   2 G_2            
     e(  5 -  6) =      2.38188  eV     2   -->   2 G_2            
     e(  7 -  8) =      2.49651  eV     2   -->   2 G_2            
     e(  9 - 10) =      6.95818  eV     2   -->   2 G_2            
     e( 11 - 12) =      7.83671  eV     2   -->   2 G_2            
     e( 13 - 14) =     13.53340  eV     2   -->   2 G_2            
     e( 15 - 16) =     14.69881  eV     2   -->   2 G_2            

 **************************************************************************

 **************************************************************************

                    xk=(   0.00000,   0.92500,   0.22500  )

     Band symmetry, C_1 (1)     double point group:

     e(  1 -  2) =     -5.04204  eV     2   -->   2 G_2            
     e(  3 -  4) =     -0.38009  eV     2   -->   2 G_2            
     e(  5 -  6) =      2.26708  eV     2   -->   2 G_2            
     e(  7 -  8) =      2.44021  eV     2   -->   2 G_2            
     e(  9 - 10) =      7.21675  eV     2   -->   2 G_2            
     e( 11 - 12) =      8.10606  eV     2   -->   2 G_2            
     e( 13 - 14) =     12.98969  eV     2   -->   2 G_2            
     e( 15 - 16) =     14.39341  eV     2   -->   2 G_2            

 **************************************************************************

 **************************************************************************

                    xk=(   0.00000,   0.91250,   0.26250  )

     Band symmetry, C_1 (1)     double point group:

     e(  1 -  2) =     -5.04919  eV     2   -->   2 G_2            
     e(  3 -  4) =     -0.33220  eV     2   -->   2 G_2            
     e(  5 -  6) =      2.14815  eV     2   -->   2 G_2            
     e(  7 -  8) =      2.39446  eV     2   -->   2 G_2            
     e(  9 - 10) =      7.50434  eV     2   -->   2 G_2            
     e( 11 - 12) =      8.40682  eV     2   -->   2 G_2            
     e( 13 - 14) =     12.44085  eV     2   -->   2 G_2            
     e( 15 - 16) =     14.05731  eV     2   -->   2 G_2            

 **************************************************************************

 **************************************************************************

                    xk=(   0.00000,   0.90000,   0.30000  )

     Band symmetry, C_1 (1)     double point group:

     e(  1 -  2) =     -5.05628  eV     2   -->   2 G_2            
     e(  3 -  4) =     -0.28605  eV     2   -->   2 G_2            
     e(  5 -  6) =      2.02950  eV     2   -->   2 G_2            
     e(  7 -  8) =      2.36464  eV     2   -->   2 G_2            
     e(  9 - 10) =      7.81540  eV     2   -->   2 G_2            
     e( 11 - 12) =      8.73448  eV     2   -->   2 G_2            
     e( 13 - 14) =     11.89736  eV     2   -->   2 G_2            
     e( 15 - 16) =     13.70969  eV     2   -->   2 G_2            

 **************************************************************************

 **************************************************************************

                    xk=(   0.00000,   0.88750,   0.33750  )

     Band symmetry, C_1 (1)     double point group:

     e(  1 -  2) =     -5.06292  eV     2   -->   2 G_2            
     e(  3 -  4) =     -0.24483  eV     2   -->   2 G_2            
     e(  5 -  6) =      1.91483  eV     2   -->   2 G_2            
     e(  7 -  8) =      2.35505  eV     2   -->   2 G_2            
     e(  9 - 10) =      8.14346  eV     2   -->   2 G_2            
     e( 11 - 12) =      9.08501  eV     2   -->   2 G_2            
     e( 13 - 14) =     11.36818  eV     2   -->   2 G_2            
     e( 15 - 16) =     13.36069  eV     2   -->   2 G_2            

 **************************************************************************

 **************************************************************************

                    xk=(  -0.00000,   0.87500,   0.37500  )

     Band symmetry, C_1 (1)     double point group:

     e(  1 -  2) =     -5.06881  eV     2   -->   2 G_2            
     e(  3 -  4) =     -0.21132  eV     2   -->   2 G_2            
     e(  5 -  6) =      1.80720  eV     2   -->   2 G_2            
     e(  7 -  8) =      2.36872  eV     2   -->   2 G_2            
     e(  9 - 10) =      8.47834  eV     2   -->   2 G_2            
     e( 11 - 12) =      9.45412  eV     2   -->   2 G_2            
     e( 13 - 14) =     10.86549  eV     2   -->   2 G_2            
     e( 15 - 16) =     13.01646  eV     2   -->   2 G_2            

 **************************************************************************

 **************************************************************************

                    xk=(   0.00000,   0.86250,   0.41250  )

     Band symmetry, C_1 (1)     double point group:

     e(  1 -  2) =     -5.07364  eV     2   -->   2 G_2            
     e(  3 -  4) =     -0.18755  eV     2   -->   2 G_2            
     e(  5 -  6) =      1.70910  eV     2   -->   2 G_2            
     e(  7 -  8) =      2.40700  eV     2   -->   2 G_2            
     e(  9 - 10) =      8.79597  eV     2   -->   2 G_2            
     e( 11 - 12) =      9.83270  eV     2   -->   2 G_2            
     e( 13 - 14) =     10.41952  eV     2   -->   2 G_2            
     e( 15 - 16) =     12.68194  eV     2   -->   2 G_2            

 **************************************************************************

 **************************************************************************

                    xk=(   0.00000,   0.85000,   0.45000  )

     Band symmetry, C_1 (1)     double point group:

     e(  1 -  2) =     -5.07717  eV     2   -->   2 G_2            
     e(  3 -  4) =     -0.17444  eV     2   -->   2 G_2            
     e(  5 -  6) =      1.62254  eV     2   -->   2 G_2            
     e(  7 -  8) =      2.46930  eV     2   -->   2 G_2            
     e(  9 - 10) =      9.01434  eV     2   -->   2 G_2            
     e( 11 - 12) =     10.03509  eV     2   -->   2 G_2            
     e( 13 - 14) =     10.29346  eV     2   -->   2 G_2            
     e( 15 - 16) =     12.36302  eV     2   -->   2 G_2            

 **************************************************************************

 **************************************************************************

                    xk=(   0.00000,   0.83750,   0.48750  )

     Band symmetry, C_1 (1)     double point group:

     e(  1 -  2) =     -5.07920  eV     2   -->   2 G_2            
     e(  3 -  4) =     -0.17178  eV     2   -->   2 G_2            
     e(  5 -  6) =      1.54912  eV     2   -->   2 G_2            
     e(  7 -  8) =      2.55292  eV     2   -->   2 G_2            
     e(  9 - 10) =      8.94486  eV     2   -->   2 G_2            
     e( 11 - 12) =     10.05529  eV     2   -->   2 G_2            
     e( 13 - 14) =     10.67219  eV     2   -->   2 G_2            
     e( 15 - 16) =     12.07095  eV     2   -->   2 G_2            

 **************************************************************************

 **************************************************************************

                    xk=(  -0.00000,   0.82500,   0.52500  )

     Band symmetry, C_1 (1)     double point group:

     e(  1 -  2) =     -5.07957  eV     2   -->   2 G_2            
     e(  3 -  4) =     -0.17835  eV     2   -->   2 G_2            
     e(  5 -  6) =      1.49003  eV     2   -->   2 G_2            
     e(  7 -  8) =      2.65305  eV     2   -->   2 G_2            
     e(  9 - 10) =      8.63687  eV     2   -->   2 G_2            
     e( 11 - 12) =     10.30400  eV     2   -->   2 G_2            
     e( 13 - 14) =     11.06359  eV     2   -->   2 G_2            
     e( 15 - 16) =     11.83966  eV     2   -->   2 G_2            

 **************************************************************************

 **************************************************************************

                    xk=(  -0.00000,   0.81250,   0.56250  )

     Band symmetry, C_1 (1)     double point group:

     e(  1 -  2) =     -5.07822  eV     2   -->   2 G_2            
     e(  3 -  4) =     -0.19229  eV     2   -->   2 G_2            
     e(  5 -  6) =      1.44613  eV     2   -->   2 G_2            
     e(  7 -  8) =      2.76278  eV     2   -->   2 G_2            
     e(  9 - 10) =      8.27613  eV     2   -->   2 G_2            
     e( 11 - 12) =     10.56797  eV     2   -->   2 G_2            
     e( 13 - 14) =     11.35473  eV     2   -->   2 G_2            
     e( 15 - 16) =     11.81201  eV     2   -->   2 G_2            

 **************************************************************************

 **************************************************************************

                    xk=(   0.00000,   0.80000,   0.60000  )

     Band symmetry, C_1 (1)     double point group:

     e(  1 -  2) =     -5.07510  eV     2   -->   2 G_2            
     e(  3 -  4) =     -0.21141  eV     2   -->   2 G_2            
     e(  5 -  6) =      1.41795  eV     2   -->   2 G_2            
     e(  7 -  8) =      2.87308  eV     2   -->   2 G_2            
     e(  9 - 10) =      7.92962  eV     2   -->   2 G_2            
     e( 11 - 12) =     10.64895  eV     2   -->   2 G_2            
     e( 13 - 14) =     11.54598  eV     2   -->   2 G_2            
     e( 15 - 16) =     12.12140  eV     2   -->   2 G_2            

 **************************************************************************

 **************************************************************************

                    xk=(  -0.00000,   0.78750,   0.63750  )

     Band symmetry, C_1 (1)     double point group:

     e(  1 -  2) =     -5.07026  eV     2   -->   2 G_2            
     e(  3 -  4) =     -0.23351  eV     2   -->   2 G_2            
     e(  5 -  6) =      1.40577  eV     2   -->   2 G_2            
     e(  7 -  8) =      2.97271  eV     2   -->   2 G_2            
     e(  9 - 10) =      7.62335  eV     2   -->   2 G_2            
     e( 11 - 12) =     10.51688  eV     2   -->   2 G_2            
     e( 13 - 14) =     11.87506  eV     2   -->   2 G_2            
     e( 15 - 16) =     12.53517  eV     2   -->   2 G_2            

 **************************************************************************

 **************************************************************************

                    xk=(   0.00000,   0.77500,   0.67500  )

     Band symmetry, C_1 (1)     double point group:

     e(  1 -  2) =     -5.06380  eV     2   -->   2 G_2            
     e(  3 -  4) =     -0.25654  eV     2   -->   2 G_2            
     e(  5 -  6) =      1.40960  eV     2   -->   2 G_2            
     e(  7 -  8) =      3.04864  eV     2   -->   2 G_2            
     e(  9 - 10) =      7.37467  eV     2   -->   2 G_2            
     e( 11 - 12) =     10.30618  eV     2   -->   2 G_2            
     e( 13 - 14) =     12.28425  eV     2   -->   2 G_2            
     e( 15 - 16) =     12.95092  eV     2   -->   2 G_2            

 **************************************************************************

 **************************************************************************

                    xk=(  -0.00000,   0.76250,   0.71250  )

     Band symmetry, C_1 (1)     double point group:

     e(  1 -  2) =     -5.05589  eV     2   -->   2 G_2            
     e(  3 -  4) =     -0.27872  eV     2   -->   2 G_2            
     e(  5 -  6) =      1.42926  eV     2   -->   2 G_2            
     e(  7 -  8) =      3.08741  eV     2   -->   2 G_2            
     e(  9 - 10) =      7.19826  eV     2   -->   2 G_2            
     e( 11 - 12) =     10.07823  eV     2   -->   2 G_2            
     e( 13 - 14) =     12.71699  eV     2   -->   2 G_2            
     e( 15 - 16) =     13.26992  eV     2   -->   2 G_2            

 **************************************************************************

 **************************************************************************

                    xk=(   0.00000,   0.75000,   0.75000  )

     double point group C_s (m)    
     there are  4 classes and  2 irreducible representations
     the character table:

       E     -E    s     -s   
                              
G_3    1.00 -1.00  0.00  0.00
G_4    1.00 -1.00  0.00  0.00

     imaginary part

       E     -E    s     -s   
                              
G_3    0.00  0.00  1.00 -1.00
G_4    0.00  0.00 -1.00  1.00

     the symmetry operations in each class and the name of the first element:

     E             1
                                                                 
     -E           -1
                                                                 
     s             2
                                                                 
     -s           -2
                                                                 

     Band symmetry, C_s (m)     double point group:

     e(  1 -  2) =     -5.04679  eV     2   --> G_3            
     e(  1 -  2) =     -5.04679  eV     2   --> G_4            
     e(  3 -  4) =     -0.29856  eV     2   --> G_3            
     e(  3 -  4) =     -0.29856  eV     2   --> G_4            
     e(  5 -  6) =      1.46441  eV     2   --> G_3            
     e(  5 -  6) =      1.46441  eV     2   --> G_4            
     e(  7 -  8) =      3.07814  eV     2   --> G_3            
     e(  7 -  8) =      3.07814  eV     2   --> G_4            
     e(  9 - 10) =      7.10513  eV     2   --> G_3            
     e(  9 - 10) =      7.10513  eV     2   --> G_4            
     e( 11 - 12) =      9.85228  eV     2   --> G_3            
     e( 11 - 12) =      9.85228  eV     2   --> G_4            
     e( 13 - 14) =     13.08110  eV     2   --> G_3            
     e( 13 - 14) =     13.08110  eV     2   --> G_4            
     e( 15 - 16) =     13.26177  eV     2   --> G_3            
     e( 15 - 16) =     13.26177  eV     2   --> G_4            

 **************************************************************************

 **************************************************************************

                    xk=(   0.00000,   0.71250,   0.71250  )

     Band symmetry, C_s (m)     double point group:

     e(  1 -  2) =     -5.08364  eV     2   --> G_3            
     e(  1 -  2) =     -5.08364  eV     2   --> G_4            
     e(  3 -  4) =     -0.24494  eV     2   --> G_3            
     e(  3 -  4) =     -0.24494  eV     2   --> G_4            
     e(  5 -  6) =      1.37120  eV     2   --> G_3            
     e(  5 -  6) =      1.37120  eV     2   --> G_4            
     e(  7 -  8) =      3.19091  eV     2   --> G_3            
     e(  7 -  8) =      3.19091  eV     2   --> G_4            
     e(  9 - 10) =      7.25971  eV     2   --> G_3            
     e(  9 - 10) =      7.25971  eV     2   --> G_4            
     e( 11 - 12) =     10.51595  eV     2   --> G_3            
     e( 11 - 12) =     10.51595  eV     2   --> G_4            
     e( 13 - 14) =     12.67887  eV     2   --> G_3            
     e( 13 - 14) =     12.67887  eV     2   --> G_4            
     e( 15 - 16) =     12.90923  eV     2   --> G_3            
     e( 15 - 16) =     12.90923  eV     2   --> G_4            

 **************************************************************************

 **************************************************************************

                    xk=(   0.00000,   0.67500,   0.67500  )

     Band symmetry, C_s (m)     double point group:

     e(  1 -  2) =     -5.13866  eV     2   --> G_3            
     e(  1 -  2) =     -5.13866  eV     2   --> G_4            
     e(  3 -  4) =     -0.19128  eV     2   --> G_3            
     e(  3 -  4) =     -0.19128  eV     2   --> G_4            
     e(  5 -  6) =      1.35039  eV     2   --> G_3            
     e(  5 -  6) =      1.35039  eV     2   --> G_4            
     e(  7 -  8) =      3.31512  eV     2   --> G_3            
     e(  7 -  8) =      3.31512  eV     2   --> G_4            
     e(  9 - 10) =      7.42687  eV     2   --> G_3            
     e(  9 - 10) =      7.42687  eV     2   --> G_4            
     e( 11 - 12) =     11.11332  eV     2   --> G_3            
     e( 11 - 12) =     11.11332  eV     2   --> G_4            
     e( 13 - 14) =     12.29386  eV     2   --> G_3            
     e( 13 - 14) =     12.29386  eV     2   --> G_4            
     e( 15 - 16) =     12.59356  eV     2   --> G_3            
     e( 15 - 16) =     12.59356  eV     2   --> G_4            

 **************************************************************************

 **************************************************************************

                    xk=(   0.00000,   0.63750,   0.63750  )

     Band symmetry, C_s (m)     double point group:

     e(  1 -  2) =     -5.21381  eV     2   --> G_3            
     e(  1 -  2) =     -5.21381  eV     2   --> G_4            
     e(  3 -  4) =     -0.12965  eV     2   --> G_3            
     e(  3 -  4) =     -0.12965  eV     2   --> G_4            
     e(  5 -  6) =      1.39894  eV     2   --> G_3            
     e(  5 -  6) =      1.39894  eV     2   --> G_4            
     e(  7 -  8) =      3.44885  eV     2   --> G_3            
     e(  7 -  8) =      3.44885  eV     2   --> G_4            
     e(  9 - 10) =      7.60505  eV     2   --> G_3            
     e(  9 - 10) =      7.60505  eV     2   --> G_4            
     e( 11 - 12) =     11.43350  eV     2   --> G_3            
     e( 11 - 12) =     11.43350  eV     2   --> G_4            
     e( 13 - 14) =     11.92957  eV     2   --> G_3            
     e( 13 - 14) =     11.92957  eV     2   --> G_4            
     e( 15 - 16) =     12.27650  eV     2   --> G_3            
     e( 15 - 16) =     12.27650  eV     2   --> G_4            

 **************************************************************************

 **************************************************************************

                    xk=(   0.00000,   0.60000,   0.60000  )

     Band symmetry, C_s (m)     double point group:

     e(  1 -  2) =     -5.30937  eV     2   --> G_3            
     e(  1 -  2) =     -5.30937  eV     2   --> G_4            
     e(  3 -  4) =     -0.04871  eV     2   --> G_3            
     e(  3 -  4) =     -0.04871  eV     2   --> G_4            
     e(  5 -  6) =      1.50740  eV     2   --> G_3            
     e(  5 -  6) =      1.50740  eV     2   --> G_4            
     e(  7 -  8) =      3.58983  eV     2   --> G_3            
     e(  7 -  8) =      3.58983  eV     2   --> G_4            
     e(  9 - 10) =      7.79106  eV     2   --> G_3            
     e(  9 - 10) =      7.79106  eV     2   --> G_4            
     e( 11 - 12) =     11.35985  eV     2   --> G_3            
     e( 11 - 12) =     11.35985  eV     2   --> G_4            
     e( 13 - 14) =     11.58842  eV     2   --> G_3            
     e( 13 - 14) =     11.58842  eV     2   --> G_4            
     e( 15 - 16) =     11.94676  eV     2   --> G_3            
     e( 15 - 16) =     11.94676  eV     2   --> G_4            

 **************************************************************************

 **************************************************************************

                    xk=(   0.00000,   0.56250,   0.56250  )

     Band symmetry, C_s (m)     double point group:

     e(  1 -  2) =     -5.42379  eV     2   --> G_3            
     e(  1 -  2) =     -5.42379  eV     2   --> G_4            
     e(  3 -  4) =      0.06199  eV     2   --> G_3            
     e(  3 -  4) =      0.06199  eV     2   --> G_4            
     e(  5 -  6) =      1.66436  eV     2   --> G_3            
     e(  5 -  6) =      1.66436  eV     2   --> G_4            
     e(  7 -  8) =      3.73542  eV     2   --> G_3            
     e(  7 -  8) =      3.73542  eV     2   --> G_4            
     e(  9 - 10) =      7.97981  eV     2   --> G_3            
     e(  9 - 10) =      7.97981  eV     2   --> G_4            
     e( 11 - 12) =     11.12044  eV     2   --> G_3            
     e( 11 - 12) =     11.12044  eV     2   --> G_4            
     e( 13 - 14) =     11.27197  eV     2   --> G_3            
     e( 13 - 14) =     11.27197  eV     2   --> G_4            
     e( 15 - 16) =     11.63758  eV     2   --> G_3            
     e( 15 - 16) =     11.63758  eV     2   --> G_4            

 **************************************************************************

 **************************************************************************

                    xk=(   0.00000,   0.52500,   0.52500  )

     Band symmetry, C_s (m)     double point group:

     e(  1 -  2) =     -5.55397  eV     2   --> G_3            
     e(  1 -  2) =     -5.55397  eV     2   --> G_4            
     e(  3 -  4) =      0.20942  eV     2   --> G_3            
     e(  3 -  4) =      0.20942  eV     2   --> G_4            
     e(  5 -  6) =      1.85956  eV     2   --> G_3            
     e(  5 -  6) =      1.85956  eV     2   --> G_4            
     e(  7 -  8) =      3.88260  eV     2   --> G_3            
     e(  7 -  8) =      3.88260  eV     2   --> G_4            
     e(  9 - 10) =      8.16360  eV     2   --> G_3            
     e(  9 - 10) =      8.16360  eV     2   --> G_4            
     e( 11 - 12) =     10.84472  eV     2   --> G_3            
     e( 11 - 12) =     10.84472  eV     2   --> G_4            
     e( 13 - 14) =     10.98111  eV     2   --> G_3            
     e( 13 - 14) =     10.98111  eV     2   --> G_4            
     e( 15 - 16) =     11.36444  eV     2   --> G_3            
     e( 15 - 16) =     11.36444  eV     2   --> G_4            

 **************************************************************************

 **************************************************************************

                    xk=(   0.00000,   0.48750,   0.48750  )

     Band symmetry, C_s (m)     double point group:

     e(  1 -  2) =     -5.69576  eV     2   --> G_3            
     e(  1 -  2) =     -5.69576  eV     2   --> G_4            
     e(  3 -  4) =      0.39678  eV     2   --> G_3            
     e(  3 -  4) =      0.39678  eV     2   --> G_4            
     e(  5 -  6) =      2.08469  eV     2   --> G_3            
     e(  5 -  6) =      2.08469  eV     2   --> G_4            
     e(  7 -  8) =      4.02809  eV     2   --> G_3            
     e(  7 -  8) =      4.02809  eV     2   --> G_4            
     e(  9 - 10) =      8.33144  eV     2   --> G_3            
     e(  9 - 10) =      8.33144  eV     2   --> G_4            
     e( 11 - 12) =     10.56984  eV     2   --> G_3            
     e( 11 - 12) =     10.56984  eV     2   --> G_4            
     e( 13 - 14) =     10.71599  eV     2   --> G_3            
     e( 13 - 14) =     10.71599  eV     2   --> G_4            
     e( 15 - 16) =     11.13745  eV     2   --> G_3            
     e( 15 - 16) =     11.13745  eV     2   --> G_4            

 **************************************************************************

 **************************************************************************

                    xk=(   0.00000,   0.45000,   0.45000  )

     Band symmetry, C_s (m)     double point group:

     e(  1 -  2) =     -5.84457  eV     2   --> G_3            
     e(  1 -  2) =     -5.84457  eV     2   --> G_4            
     e(  3 -  4) =      0.62445  eV     2   --> G_3            
     e(  3 -  4) =      0.62445  eV     2   --> G_4            
     e(  5 -  6) =      2.33310  eV     2   --> G_3            
     e(  5 -  6) =      2.33310  eV     2   --> G_4            
     e(  7 -  8) =      4.16846  eV     2   --> G_3            
     e(  7 -  8) =      4.16846  eV     2   --> G_4            
     e(  9 - 10) =      8.46881  eV     2   --> G_3            
     e(  9 - 10) =      8.46881  eV     2   --> G_4            
     e( 11 - 12) =     10.30899  eV     2   --> G_3            
     e( 11 - 12) =     10.30899  eV     2   --> G_4            
     e( 13 - 14) =     10.47612  eV     2   --> G_3            
     e( 13 - 14) =     10.47612  eV     2   --> G_4            
     e( 15 - 16) =     10.96618  eV     2   --> G_3            
     e( 15 - 16) =     10.96618  eV     2   --> G_4            

 **************************************************************************

 **************************************************************************

                    xk=(   0.00000,   0.41250,   0.41250  )

     Band symmetry, C_s (m)     double point group:

     e(  1 -  2) =     -5.99586  eV     2   --> G_3            
     e(  1 -  2) =     -5.99586  eV     2   --> G_4            
     e(  3 -  4) =      0.89106  eV     2   --> G_3            
     e(  3 -  4) =      0.89106  eV     2   --> G_4            
     e(  5 -  6) =      2.59908  eV     2   --> G_3            
     e(  5 -  6) =      2.59908  eV     2   --> G_4            
     e(  7 -  8) =      4.30029  eV     2   --> G_3            
     e(  7 -  8) =      4.30029  eV     2   --> G_4            
     e(  9 - 10) =      8.55983  eV     2   --> G_3            
     e(  9 - 10) =      8.55983  eV     2   --> G_4            
     e( 11 - 12) =     10.06852  eV     2   --> G_3            
     e( 11 - 12) =     10.06852  eV     2   --> G_4            
     e( 13 - 14) =     10.26040  eV     2   --> G_3            
     e( 13 - 14) =     10.26040  eV     2   --> G_4            
     e( 15 - 16) =     10.85771  eV     2   --> G_3            
     e( 15 - 16) =     10.85771  eV     2   --> G_4            

 **************************************************************************

 **************************************************************************

                    xk=(   0.00000,   0.37500,   0.37500  )

     Band symmetry, C_s (m)     double point group:

     e(  1 -  2) =     -6.14544  eV     2   --> G_3            
     e(  1 -  2) =     -6.14544  eV     2   --> G_4            
     e(  3 -  4) =      1.19428  eV     2   --> G_3            
     e(  3 -  4) =      1.19428  eV     2   --> G_4            
     e(  5 -  6) =      2.87732  eV     2   --> G_3            
     e(  5 -  6) =      2.87732  eV     2   --> G_4            
     e(  7 -  8) =      4.42053  eV     2   --> G_3            
     e(  7 -  8) =      4.42053  eV     2   --> G_4            
     e(  9 - 10) =      8.59306  eV     2   --> G_3            
     e(  9 - 10) =      8.59306  eV     2   --> G_4            
     e( 11 - 12) =      9.85228  eV     2   --> G_3            
     e( 11 - 12) =      9.85228  eV     2   --> G_4            
     e( 13 - 14) =     10.06735  eV     2   --> G_3            
     e( 13 - 14) =     10.06735  eV     2   --> G_4            
     e( 15 - 16) =     10.80886  eV     2   --> G_3            
     e( 15 - 16) =     10.80886  eV     2   --> G_4            

 **************************************************************************

 **************************************************************************

                    xk=(   0.00000,   0.33750,   0.33750  )

     Band symmetry, C_s (m)     double point group:

     e(  1 -  2) =     -6.28965  eV     2   --> G_3            
     e(  1 -  2) =     -6.28965  eV     2   --> G_4            
     e(  3 -  4) =      1.53130  eV     2   --> G_3            
     e(  3 -  4) =      1.53130  eV     2   --> G_4            
     e(  5 -  6) =      3.16239  eV     2   --> G_3            
     e(  5 -  6) =      3.16239  eV     2   --> G_4            
     e(  7 -  8) =      4.52675  eV     2   --> G_3            
     e(  7 -  8) =      4.52675  eV     2   --> G_4            
     e(  9 - 10) =      8.56766  eV     2   --> G_3            
     e(  9 - 10) =      8.56766  eV     2   --> G_4            
     e( 11 - 12) =      9.66303  eV     2   --> G_3            
     e( 11 - 12) =      9.66303  eV     2   --> G_4            
     e( 13 - 14) =      9.89532  eV     2   --> G_3            
     e( 13 - 14) =      9.89532  eV     2   --> G_4            
     e( 15 - 16) =     10.79648  eV     2   --> G_3            
     e( 15 - 16) =     10.79648  eV     2   --> G_4            

 **************************************************************************

 **************************************************************************

                    xk=(   0.00000,   0.30000,   0.30000  )

     Band symmetry, C_s (m)     double point group:

     e(  1 -  2) =     -6.42539  eV     2   --> G_3            
     e(  1 -  2) =     -6.42539  eV     2   --> G_4            
     e(  3 -  4) =      1.89897  eV     2   --> G_3            
     e(  3 -  4) =      1.89897  eV     2   --> G_4            
     e(  5 -  6) =      3.44839  eV     2   --> G_3            
     e(  5 -  6) =      3.44839  eV     2   --> G_4            
     e(  7 -  8) =      4.61741  eV     2   --> G_3            
     e(  7 -  8) =      4.61741  eV     2   --> G_4            
     e(  9 - 10) =      8.49270  eV     2   --> G_3            
     e(  9 - 10) =      8.49270  eV     2   --> G_4            
     e( 11 - 12) =      9.50288  eV     2   --> G_3            
     e( 11 - 12) =      9.50288  eV     2   --> G_4            
     e( 13 - 14) =      9.74281  eV     2   --> G_3            
     e( 13 - 14) =      9.74281  eV     2   --> G_4            
     e( 15 - 16) =     10.77388  eV     2   --> G_3            
     e( 15 - 16) =     10.77388  eV     2   --> G_4            

 **************************************************************************

 **************************************************************************

                    xk=(   0.00000,   0.26250,   0.26250  )

     Band symmetry, C_s (m)     double point group:

     e(  1 -  2) =     -6.55012  eV     2   --> G_3            
     e(  1 -  2) =     -6.55012  eV     2   --> G_4            
     e(  3 -  4) =      2.29375  eV     2   --> G_3            
     e(  3 -  4) =      2.29375  eV     2   --> G_4            
     e(  5 -  6) =      3.72872  eV     2   --> G_3            
     e(  5 -  6) =      3.72872  eV     2   --> G_4            
     e(  7 -  8) =      4.69204  eV     2   --> G_3            
     e(  7 -  8) =      4.69204  eV     2   --> G_4            
     e(  9 - 10) =      8.37968  eV     2   --> G_3            
     e(  9 - 10) =      8.37968  eV     2   --> G_4            
     e( 11 - 12) =      9.37339  eV     2   --> G_3            
     e( 11 - 12) =      9.37339  eV     2   --> G_4            
     e( 13 - 14) =      9.60870  eV     2   --> G_3            
     e( 13 - 14) =      9.60870  eV     2   --> G_4            
     e( 15 - 16) =     10.68123  eV     2   --> G_3            
     e( 15 - 16) =     10.68123  eV     2   --> G_4            

 **************************************************************************

 **************************************************************************

                    xk=(   0.00000,   0.22500,   0.22500  )

     Band symmetry, C_s (m)     double point group:

     e(  1 -  2) =     -6.66176  eV     2   --> G_3            
     e(  1 -  2) =     -6.66176  eV     2   --> G_4            
     e(  3 -  4) =      2.71141  eV     2   --> G_3            
     e(  3 -  4) =      2.71141  eV     2   --> G_4            
     e(  5 -  6) =      3.99592  eV     2   --> G_3            
     e(  5 -  6) =      3.99592  eV     2   --> G_4            
     e(  7 -  8) =      4.75118  eV     2   --> G_3            
     e(  7 -  8) =      4.75118  eV     2   --> G_4            
     e(  9 - 10) =      8.23551  eV     2   --> G_3            
     e(  9 - 10) =      8.23551  eV     2   --> G_4            
     e( 11 - 12) =      9.27537  eV     2   --> G_3            
     e( 11 - 12) =      9.27537  eV     2   --> G_4            
     e( 13 - 14) =      9.49234  eV     2   --> G_3            
     e( 13 - 14) =      9.49234  eV     2   --> G_4            
     e( 15 - 16) =     10.47830  eV     2   --> G_3            
     e( 15 - 16) =     10.47830  eV     2   --> G_4            

 **************************************************************************

 **************************************************************************

                    xk=(   0.00000,   0.18750,   0.18750  )

     Band symmetry, C_s (m)     double point group:

     e(  1 -  2) =     -6.75866  eV     2   --> G_3            
     e(  1 -  2) =     -6.75866  eV     2   --> G_4            
     e(  3 -  4) =      3.14632  eV     2   --> G_3            
     e(  3 -  4) =      3.14632  eV     2   --> G_4            
     e(  5 -  6) =      4.24180  eV     2   --> G_3            
     e(  5 -  6) =      4.24180  eV     2   --> G_4            
     e(  7 -  8) =      4.79623  eV     2   --> G_3            
     e(  7 -  8) =      4.79623  eV     2   --> G_4            
     e(  9 - 10) =      8.05962  eV     2   --> G_3            
     e(  9 - 10) =      8.05962  eV     2   --> G_4            
     e( 11 - 12) =      9.20844  eV     2   --> G_3            
     e( 11 - 12) =      9.20844  eV     2   --> G_4            
     e( 13 - 14) =      9.39347  eV     2   --> G_3            
     e( 13 - 14) =      9.39347  eV     2   --> G_4            
     e( 15 - 16) =     10.18142  eV     2   --> G_3            
     e( 15 - 16) =     10.18142  eV     2   --> G_4            

 **************************************************************************

 **************************************************************************

                    xk=(   0.00000,   0.15000,   0.15000  )

     Band symmetry, C_s (m)     double point group:

     e(  1 -  2) =     -6.83953  eV     2   --> G_3            
     e(  1 -  2) =     -6.83953  eV     2   --> G_4            
     e(  3 -  4) =      3.59009  eV     2   --> G_3            
     e(  3 -  4) =      3.59009  eV     2   --> G_4            
     e(  5 -  6) =      4.45781  eV     2   --> G_3            
     e(  5 -  6) =      4.45781  eV     2   --> G_4            
     e(  7 -  8) =      4.82912  eV     2   --> G_3            
     e(  7 -  8) =      4.82912  eV     2   --> G_4            
     e(  9 - 10) =      7.84518  eV     2   --> G_3            
     e(  9 - 10) =      7.84518  eV     2   --> G_4            
     e( 11 - 12) =      9.17024  eV     2   --> G_3            
     e( 11 - 12) =      9.17024  eV     2   --> G_4            
     e( 13 - 14) =      9.31212  eV     2   --> G_3            
     e( 13 - 14) =      9.31212  eV     2   --> G_4            
     e( 15 - 16) =      9.85267  eV     2   --> G_3            
     e( 15 - 16) =      9.85267  eV     2   --> G_4            

 **************************************************************************

 **************************************************************************

                    xk=(   0.00000,   0.11250,   0.11250  )

     Band symmetry, C_s (m)     double point group:

     e(  1 -  2) =     -6.90338  eV     2   --> G_3            
     e(  1 -  2) =     -6.90338  eV     2   --> G_4            
     e(  3 -  4) =      4.02849  eV     2   --> G_3            
     e(  3 -  4) =      4.02849  eV     2   --> G_4            
     e(  5 -  6) =      4.63565  eV     2   --> G_3            
     e(  5 -  6) =      4.63565  eV     2   --> G_4            
     e(  7 -  8) =      4.85194  eV     2   --> G_3            
     e(  7 -  8) =      4.85194  eV     2   --> G_4            
     e(  9 - 10) =      7.58747  eV     2   --> G_3            
     e(  9 - 10) =      7.58747  eV     2   --> G_4            
     e( 11 - 12) =      9.15562  eV     2   --> G_3            
     e( 11 - 12) =      9.15562  eV     2   --> G_4            
     e( 13 - 14) =      9.24848  eV     2   --> G_3            
     e( 13 - 14) =      9.24848  eV     2   --> G_4            
     e( 15 - 16) =      9.55762  eV     2   --> G_3            
     e( 15 - 16) =      9.55762  eV     2   --> G_4            

 **************************************************************************

 **************************************************************************

                    xk=(   0.00000,   0.07500,   0.07500  )

     Band symmetry, C_s (m)     double point group:

     e(  1 -  2) =     -6.94948  eV     2   --> G_3            
     e(  1 -  2) =     -6.94948  eV     2   --> G_4            
     e(  3 -  4) =      4.43407  eV     2   --> G_3            
     e(  3 -  4) =      4.43407  eV     2   --> G_4            
     e(  5 -  6) =      4.76813  eV     2   --> G_3            
     e(  5 -  6) =      4.76813  eV     2   --> G_4            
     e(  7 -  8) =      4.86664  eV     2   --> G_3            
     e(  7 -  8) =      4.86664  eV     2   --> G_4            
     e(  9 - 10) =      7.30290  eV     2   --> G_3            
     e(  9 - 10) =      7.30290  eV     2   --> G_4            
     e( 11 - 12) =      9.15647  eV     2   --> G_3            
     e( 11 - 12) =      9.15647  eV     2   --> G_4            
     e( 13 - 14) =      9.20279  eV     2   --> G_3            
     e( 13 - 14) =      9.20279  eV     2   --> G_4            
     e( 15 - 16) =      9.33832  eV     2   --> G_3            
     e( 15 - 16) =      9.33832  eV     2   --> G_4            

 **************************************************************************

 **************************************************************************

                    xk=(   0.00000,   0.03750,   0.03750  )

     Band symmetry, C_s (m)     double point group:

     e(  1 -  2) =     -6.97733  eV     2   --> G_3            
     e(  1 -  2) =     -6.97733  eV     2   --> G_4            
     e(  3 -  4) =      4.75001  eV     2   --> G_3            
     e(  3 -  4) =      4.75001  eV     2   --> G_4            
     e(  5 -  6) =      4.84981  eV     2   --> G_3            
     e(  5 -  6) =      4.84981  eV     2   --> G_4            
     e(  7 -  8) =      4.87479  eV     2   --> G_3            
     e(  7 -  8) =      4.87479  eV     2   --> G_4            
     e(  9 - 10) =      7.05207  eV     2   --> G_3            
     e(  9 - 10) =      7.05207  eV     2   --> G_4            
     e( 11 - 12) =      9.16282  eV     2   --> G_3            
     e( 11 - 12) =      9.16282  eV     2   --> G_4            
     e( 13 - 14) =      9.17528  eV     2   --> G_3            
     e( 13 - 14) =      9.17528  eV     2   --> G_4            
     e( 15 - 16) =      9.20850  eV     2   --> G_3            
     e( 15 - 16) =      9.20850  eV     2   --> G_4            

 **************************************************************************

 **************************************************************************

                    xk=(   0.00000,   0.00000,   0.00000  )

     double point group T_d (-43m) 
     there are  8 classes and  3 irreducible representations
     the character table:

       E     -E    8C3   -8C3   3C2  6S4   -6S4  6s_d 
                               -3C2              -6s_d
G_6    2.00 -2.00  1.00 -1.00  0.00  1.41 -1.41  0.00
G_7    2.00 -2.00  1.00 -1.00  0.00 -1.41  1.41  0.00
G_8    4.00 -4.00 -1.00  1.00  0.00  0.00  0.00  0.00

     the symmetry operations in each class and the name of the first element:

     E             1
                                                                 
     -E           -1
                                                                 
     8C3           5    7    8    6   12    9   10   11
                                                                 
     -8C3         -5   -7   -8   -6  -12   -9  -10  -11
                                                                 
      3C2 -3C2     2   -2    3   -3    4   -4
                                                                 
     6S4          15   16   20   19   23   24
                                                                 
     -6S4        -15  -16  -20  -19  -23  -24
                                                                 
     6s_d -6s_d   13  -13  -14   14   17  -17  -18   18   21  -21   22  -22
                                                                 

     Band symmetry, T_d (-43m)  double point group:

     e(  1 -  2) =     -6.98665  eV     2   --> G_6  P_6       
     e(  3 -  8) =      4.87739  eV     6   --> G_7  P_7       
     e(  3 -  8) =      4.87739  eV     6   --> G_8  P_8       
     e(  9 - 10) =      6.94466  eV     2   --> G_6  P_6       
     e( 11 - 16) =      9.16609  eV     6   --> G_7  P_7       
     e( 11 - 16) =      9.16609  eV     6   --> G_8  P_8       

 **************************************************************************

     BANDS        :   1m18.23s CPU     18.76s WALL


   This run was terminated on:   5: 1: 6   3Jan2025            

=------------------------------------------------------------------------------=
   JOB DONE.
=------------------------------------------------------------------------------=
