
     Program PWSCF v.7.0 starts on  3Jan2025 at  7: 0:27 

     This program is part of the open-source Quantum ESPRESSO suite
     for quantum simulation of materials; please cite
         "P. Giannozzi et al., J. Phys.:Condens. Matter 21 395502 (2009);
         "P. Giannozzi et al., J. Phys.:Condens. Matter 29 465901 (2017);
         "P. Giannozzi et al., J. Chem. Phys. 152 154105 (2020);
          URL http://www.quantum-espresso.org", 
     in publications or presentations arising from this work. More details at
     http://www.quantum-espresso.org/quote

     Parallel version (MPI & OpenMP), running on       2 processor cores
     Number of MPI processes:                 2
     Threads/MPI process:                     1

     MPI processes distributed on     1 nodes
     R & G space division:  proc/nbgrp/npool/nimage =       2
     327 MiB available memory on the printing compute node when the environment starts

     Reading input from pw.bands.w_soc.in

     Current dimensions of program PWSCF are:
     Max number of different atomic species (ntypx) = 10
     Max number of k-points (npk) =  40000
     Max angular momentum in pseudopotentials (lmaxx) =  4
     Message from routine volume:
     axis vectors are left-handed

     Atomic positions and unit cell read from directory:
     ./outputs/alas.save/

     Message from routine volume:
     axis vectors are left-handed
     file Al.rel-pbe-n-kjpaw_psl.1.0.0.UPF: wavefunction(s)  3S 3P 3P renormalized

     IMPORTANT: XC functional enforced from input :
     Exchange-correlation= PBE
                           (   1   4   3   4   0   0   0)
     Any further DFT definition will be discarded
     Please, verify this is what you really want

     Message from routine setup:
     using ibrav=0 with symmetry is DISCOURAGED, use correct ibrav instead

     Subspace diagonalization in iterative solution of the eigenvalue problem:
     a serial algorithm will be used


     Parallelization info
     --------------------
     sticks:   dense  smooth     PW     G-vecs:    dense   smooth      PW
     Min         395     395    120                 7276     7276    1198
     Max         398     398    121                 7277     7277    1199
     Sum         793     793    241                14553    14553    2397

     Using Slab Decomposition



     bravais-lattice index     =            0
     lattice parameter (alat)  =      10.6974  a.u.
     unit-cell volume          =     306.0343 (a.u.)^3
     number of atoms/cell      =            2
     number of atomic types    =            2
     number of electrons       =         8.00
     number of Kohn-Sham states=           16
     kinetic-energy cutoff     =      50.0000  Ry
     charge density cutoff     =     200.0000  Ry
     Exchange-correlation= PBE
                           (   1   4   3   4   0   0   0)
     Non magnetic calculation with spin-orbit


     celldm(1)=  10.697362  celldm(2)=   0.000000  celldm(3)=   0.000000
     celldm(4)=   0.000000  celldm(5)=   0.000000  celldm(6)=   0.000000

     crystal axes: (cart. coord. in units of alat)
               a(1) = (   0.500000   0.500000   0.000000 )  
               a(2) = (   0.500000   0.000000   0.500000 )  
               a(3) = (   0.000000   0.500000   0.500000 )  

     reciprocal axes: (cart. coord. in units 2 pi/alat)
               b(1) = (  1.000000  1.000000 -1.000000 )  
               b(2) = (  1.000000 -1.000000  1.000000 )  
               b(3) = ( -1.000000  1.000000  1.000000 )  


     PseudoPot. # 1 for As read from file:
     ../Pseudopotentials/As.rel-pbe-n-kjpaw_psl.1.0.0.UPF
     MD5 check sum: 64fce746f52c6128fdf7901f08bfcabb
     Pseudo is Projector augmented-wave + core cor, Zval =  5.0
     Generated using &quot;atomic&quot; code by A. Dal Corso  v.6.3
     Shape of augmentation charge: PSQ
     Using radial grid of 1209 points,  6 beta functions with: 
                l(1) =   0
                l(2) =   0
                l(3) =   1
                l(4) =   1
                l(5) =   1
                l(6) =   1
     Q(r) pseudized with 0 coefficients 


     PseudoPot. # 2 for Al read from file:
     ../Pseudopotentials/Al.rel-pbe-n-kjpaw_psl.1.0.0.UPF
     MD5 check sum: 7249271efcd0df95b4b192763abbeb3c
     Pseudo is Projector augmented-wave + core cor, Zval =  3.0
     Generated using &quot;atomic&quot; code by A. Dal Corso  v.6.3
     Shape of augmentation charge: PSQ
     Using radial grid of 1135 points, 10 beta functions with: 
                l(1) =   0
                l(2) =   0
                l(3) =   1
                l(4) =   1
                l(5) =   1
                l(6) =   1
                l(7) =   2
                l(8) =   2
                l(9) =   2
               l(10) =   2
     Q(r) pseudized with 0 coefficients 


     atomic species   valence    mass     pseudopotential
        As             5.00    74.92100     As( 1.00)
        Al             3.00    26.98100     Al( 1.00)

     24 Sym. Ops. (no inversion) found


                                    s                        frac. trans.

      isym =  1     identity                                     

 cryst.   s( 1) = (     1          0          0      )
                  (     0          1          0      )
                  (     0          0          1      )

 cart.    s( 1) = (  1.0000000  0.0000000  0.0000000 )
                  (  0.0000000  1.0000000  0.0000000 )
                  (  0.0000000  0.0000000  1.0000000 )


      isym =  2     180 deg rotation - cart. axis [0,0,1]        

 cryst.   s( 2) = (    -1          0          0      )
                  (    -1          0          1      )
                  (    -1          1          0      )

 cart.    s( 2) = ( -1.0000000  0.0000000  0.0000000 )
                  (  0.0000000 -1.0000000  0.0000000 )
                  (  0.0000000  0.0000000  1.0000000 )


      isym =  3     180 deg rotation - cart. axis [0,1,0]        

 cryst.   s( 3) = (     0         -1          1      )
                  (     0         -1          0      )
                  (     1         -1          0      )

 cart.    s( 3) = ( -1.0000000  0.0000000  0.0000000 )
                  (  0.0000000  1.0000000  0.0000000 )
                  (  0.0000000  0.0000000 -1.0000000 )


      isym =  4     180 deg rotation - cart. axis [1,0,0]        

 cryst.   s( 4) = (     0          1         -1      )
                  (     1          0         -1      )
                  (     0          0         -1      )

 cart.    s( 4) = (  1.0000000  0.0000000  0.0000000 )
                  (  0.0000000 -1.0000000  0.0000000 )
                  (  0.0000000  0.0000000 -1.0000000 )


      isym =  5     120 deg rotation - cart. axis [-1,-1,-1]     

 cryst.   s( 5) = (     0          1          0      )
                  (     0          0          1      )
                  (     1          0          0      )

 cart.    s( 5) = (  0.0000000  1.0000000  0.0000000 )
                  (  0.0000000  0.0000000  1.0000000 )
                  (  1.0000000  0.0000000  0.0000000 )


      isym =  6     120 deg rotation - cart. axis [-1,1,1]       

 cryst.   s( 6) = (     0         -1          0      )
                  (     1         -1          0      )
                  (     0         -1          1      )

 cart.    s( 6) = (  0.0000000 -1.0000000  0.0000000 )
                  (  0.0000000  0.0000000  1.0000000 )
                  ( -1.0000000  0.0000000  0.0000000 )


      isym =  7     120 deg rotation - cart. axis [1,1,-1]       

 cryst.   s( 7) = (     1          0         -1      )
                  (     0          0         -1      )
                  (     0          1         -1      )

 cart.    s( 7) = (  0.0000000  1.0000000  0.0000000 )
                  (  0.0000000  0.0000000 -1.0000000 )
                  ( -1.0000000  0.0000000  0.0000000 )


      isym =  8     120 deg rotation - cart. axis [1,-1,1]       

 cryst.   s( 8) = (    -1          0          1      )
                  (    -1          1          0      )
                  (    -1          0          0      )

 cart.    s( 8) = (  0.0000000 -1.0000000  0.0000000 )
                  (  0.0000000  0.0000000 -1.0000000 )
                  (  1.0000000  0.0000000  0.0000000 )


      isym =  9     120 deg rotation - cart. axis [1,1,1]        

 cryst.   s( 9) = (     0          0          1      )
                  (     1          0          0      )
                  (     0          1          0      )

 cart.    s( 9) = (  0.0000000  0.0000000  1.0000000 )
                  (  1.0000000  0.0000000  0.0000000 )
                  (  0.0000000  1.0000000  0.0000000 )


      isym = 10     120 deg rotation - cart. axis [-1,1,-1]      

 cryst.   s(10) = (     0          0         -1      )
                  (     0          1         -1      )
                  (     1          0         -1      )

 cart.    s(10) = (  0.0000000  0.0000000  1.0000000 )
                  ( -1.0000000  0.0000000  0.0000000 )
                  (  0.0000000 -1.0000000  0.0000000 )


      isym = 11     120 deg rotation - cart. axis [1,-1,-1]      

 cryst.   s(11) = (    -1          1          0      )
                  (    -1          0          0      )
                  (    -1          0          1      )

 cart.    s(11) = (  0.0000000  0.0000000 -1.0000000 )
                  ( -1.0000000  0.0000000  0.0000000 )
                  (  0.0000000  1.0000000  0.0000000 )


      isym = 12     120 deg rotation - cart. axis [-1,-1,1]      

 cryst.   s(12) = (     1         -1          0      )
                  (     0         -1          1      )
                  (     0         -1          0      )

 cart.    s(12) = (  0.0000000  0.0000000 -1.0000000 )
                  (  1.0000000  0.0000000  0.0000000 )
                  (  0.0000000 -1.0000000  0.0000000 )


      isym = 13     inv. 180 deg rotation - cart. axis [1,1,0]   

 cryst.   s(13) = (    -1          0          0      )
                  (    -1          1          0      )
                  (    -1          0          1      )

 cart.    s(13) = (  0.0000000 -1.0000000  0.0000000 )
                  ( -1.0000000  0.0000000  0.0000000 )
                  (  0.0000000  0.0000000  1.0000000 )


      isym = 14     inv. 180 deg rotation - cart. axis [1,-1,0]  

 cryst.   s(14) = (     1          0          0      )
                  (     0          0          1      )
                  (     0          1          0      )

 cart.    s(14) = (  0.0000000  1.0000000  0.0000000 )
                  (  1.0000000  0.0000000  0.0000000 )
                  (  0.0000000  0.0000000  1.0000000 )


      isym = 15     inv.  90 deg rotation - cart. axis [0,0,-1]  

 cryst.   s(15) = (     0         -1          1      )
                  (     1         -1          0      )
                  (     0         -1          0      )

 cart.    s(15) = (  0.0000000 -1.0000000  0.0000000 )
                  (  1.0000000  0.0000000  0.0000000 )
                  (  0.0000000  0.0000000 -1.0000000 )


      isym = 16     inv.  90 deg rotation - cart. axis [0,0,1]   

 cryst.   s(16) = (     0          1         -1      )
                  (     0          0         -1      )
                  (     1          0         -1      )

 cart.    s(16) = (  0.0000000  1.0000000  0.0000000 )
                  ( -1.0000000  0.0000000  0.0000000 )
                  (  0.0000000  0.0000000 -1.0000000 )


      isym = 17     inv. 180 deg rotation - cart. axis [1,0,1]   

 cryst.   s(17) = (     1         -1          0      )
                  (     0         -1          0      )
                  (     0         -1          1      )

 cart.    s(17) = (  0.0000000  0.0000000 -1.0000000 )
                  (  0.0000000  1.0000000  0.0000000 )
                  ( -1.0000000  0.0000000  0.0000000 )


      isym = 18     inv. 180 deg rotation - cart. axis [-1,0,1]  

 cryst.   s(18) = (     0          0          1      )
                  (     0          1          0      )
                  (     1          0          0      )

 cart.    s(18) = (  0.0000000  0.0000000  1.0000000 )
                  (  0.0000000  1.0000000  0.0000000 )
                  (  1.0000000  0.0000000  0.0000000 )


      isym = 19     inv.  90 deg rotation - cart. axis [0,1,0]   

 cryst.   s(19) = (    -1          1          0      )
                  (    -1          0          1      )
                  (    -1          0          0      )

 cart.    s(19) = (  0.0000000  0.0000000 -1.0000000 )
                  (  0.0000000 -1.0000000  0.0000000 )
                  (  1.0000000  0.0000000  0.0000000 )


      isym = 20     inv.  90 deg rotation - cart. axis [0,-1,0]  

 cryst.   s(20) = (     0          0         -1      )
                  (     1          0         -1      )
                  (     0          1         -1      )

 cart.    s(20) = (  0.0000000  0.0000000  1.0000000 )
                  (  0.0000000 -1.0000000  0.0000000 )
                  ( -1.0000000  0.0000000  0.0000000 )


      isym = 21     inv. 180 deg rotation - cart. axis [0,1,1]   

 cryst.   s(21) = (     1          0         -1      )
                  (     0          1         -1      )
                  (     0          0         -1      )

 cart.    s(21) = (  1.0000000  0.0000000  0.0000000 )
                  (  0.0000000  0.0000000 -1.0000000 )
                  (  0.0000000 -1.0000000  0.0000000 )


      isym = 22     inv. 180 deg rotation - cart. axis [0,1,-1]  

 cryst.   s(22) = (     0          1          0      )
                  (     1          0          0      )
                  (     0          0          1      )

 cart.    s(22) = (  1.0000000  0.0000000  0.0000000 )
                  (  0.0000000  0.0000000  1.0000000 )
                  (  0.0000000  1.0000000  0.0000000 )


      isym = 23     inv.  90 deg rotation - cart. axis [-1,0,0]  

 cryst.   s(23) = (    -1          0          1      )
                  (    -1          0          0      )
                  (    -1          1          0      )

 cart.    s(23) = ( -1.0000000  0.0000000  0.0000000 )
                  (  0.0000000  0.0000000 -1.0000000 )
                  (  0.0000000  1.0000000  0.0000000 )


      isym = 24     inv.  90 deg rotation - cart. axis [1,0,0]   

 cryst.   s(24) = (     0         -1          0      )
                  (     0         -1          1      )
                  (     1         -1          0      )

 cart.    s(24) = ( -1.0000000  0.0000000  0.0000000 )
                  (  0.0000000  0.0000000  1.0000000 )
                  (  0.0000000 -1.0000000  0.0000000 )


   Cartesian axes

     site n.     atom                  positions (alat units)
         1           As  tau(   1) = (   0.2500000   0.2500000   0.2500000  )
         2           Al  tau(   2) = (   0.0000000   0.0000000   0.0000000  )

   Crystallographic axes

     site n.     atom                  positions (cryst. coord.)
         1           As  tau(   1) = (  0.2500000  0.2500000  0.2500000  )
         2           Al  tau(   2) = (  0.0000000  0.0000000  0.0000000  )

     number of k points=    81  Marzari-Vanderbilt smearing, width (Ry)=  0.0050
                       cart. coord. in units 2pi/alat
        k(    1) = (   0.5000000   0.5000000   0.5000000), wk =   0.0123457
        k(    2) = (   0.4750000   0.4750000   0.4750000), wk =   0.0123457
        k(    3) = (   0.4500000   0.4500000   0.4500000), wk =   0.0123457
        k(    4) = (   0.4250000   0.4250000   0.4250000), wk =   0.0123457
        k(    5) = (   0.4000000   0.4000000   0.4000000), wk =   0.0123457
        k(    6) = (   0.3750000   0.3750000   0.3750000), wk =   0.0123457
        k(    7) = (   0.3500000   0.3500000   0.3500000), wk =   0.0123457
        k(    8) = (   0.3250000   0.3250000   0.3250000), wk =   0.0123457
        k(    9) = (   0.3000000   0.3000000   0.3000000), wk =   0.0123457
        k(   10) = (   0.2750000   0.2750000   0.2750000), wk =   0.0123457
        k(   11) = (   0.2500000   0.2500000   0.2500000), wk =   0.0123457
        k(   12) = (   0.2250000   0.2250000   0.2250000), wk =   0.0123457
        k(   13) = (   0.2000000   0.2000000   0.2000000), wk =   0.0123457
        k(   14) = (   0.1750000   0.1750000   0.1750000), wk =   0.0123457
        k(   15) = (   0.1500000   0.1500000   0.1500000), wk =   0.0123457
        k(   16) = (   0.1250000   0.1250000   0.1250000), wk =   0.0123457
        k(   17) = (   0.1000000   0.1000000   0.1000000), wk =   0.0123457
        k(   18) = (   0.0750000   0.0750000   0.0750000), wk =   0.0123457
        k(   19) = (   0.0500000   0.0500000   0.0500000), wk =   0.0123457
        k(   20) = (   0.0250000   0.0250000   0.0250000), wk =   0.0123457
        k(   21) = (   0.0000000   0.0000000   0.0000000), wk =   0.0123457
        k(   22) = (   0.0000000   0.0500000   0.0000000), wk =   0.0123457
        k(   23) = (   0.0000000   0.1000000   0.0000000), wk =   0.0123457
        k(   24) = (   0.0000000   0.1500000   0.0000000), wk =   0.0123457
        k(   25) = (   0.0000000   0.2000000   0.0000000), wk =   0.0123457
        k(   26) = (   0.0000000   0.2500000   0.0000000), wk =   0.0123457
        k(   27) = (   0.0000000   0.3000000   0.0000000), wk =   0.0123457
        k(   28) = (   0.0000000   0.3500000   0.0000000), wk =   0.0123457
        k(   29) = (   0.0000000   0.4000000   0.0000000), wk =   0.0123457
        k(   30) = (   0.0000000   0.4500000   0.0000000), wk =   0.0123457
        k(   31) = (   0.0000000   0.5000000   0.0000000), wk =   0.0123457
        k(   32) = (   0.0000000   0.5500000   0.0000000), wk =   0.0123457
        k(   33) = (   0.0000000   0.6000000   0.0000000), wk =   0.0123457
        k(   34) = (   0.0000000   0.6500000   0.0000000), wk =   0.0123457
        k(   35) = (   0.0000000   0.7000000   0.0000000), wk =   0.0123457
        k(   36) = (   0.0000000   0.7500000   0.0000000), wk =   0.0123457
        k(   37) = (   0.0000000   0.8000000   0.0000000), wk =   0.0123457
        k(   38) = (   0.0000000   0.8500000   0.0000000), wk =   0.0123457
        k(   39) = (   0.0000000   0.9000000   0.0000000), wk =   0.0123457
        k(   40) = (   0.0000000   0.9500000   0.0000000), wk =   0.0123457
        k(   41) = (   0.0000000   1.0000000   0.0000000), wk =   0.0123457
        k(   42) = (   0.0000000   0.9875000   0.0375000), wk =   0.0123457
        k(   43) = (   0.0000000   0.9750000   0.0750000), wk =   0.0123457
        k(   44) = (   0.0000000   0.9625000   0.1125000), wk =   0.0123457
        k(   45) = (   0.0000000   0.9500000   0.1500000), wk =   0.0123457
        k(   46) = (   0.0000000   0.9375000   0.1875000), wk =   0.0123457
        k(   47) = (   0.0000000   0.9250000   0.2250000), wk =   0.0123457
        k(   48) = (   0.0000000   0.9125000   0.2625000), wk =   0.0123457
        k(   49) = (   0.0000000   0.9000000   0.3000000), wk =   0.0123457
        k(   50) = (   0.0000000   0.8875000   0.3375000), wk =   0.0123457
        k(   51) = (  -0.0000000   0.8750000   0.3750000), wk =   0.0123457
        k(   52) = (   0.0000000   0.8625000   0.4125000), wk =   0.0123457
        k(   53) = (   0.0000000   0.8500000   0.4500000), wk =   0.0123457
        k(   54) = (   0.0000000   0.8375000   0.4875000), wk =   0.0123457
        k(   55) = (  -0.0000000   0.8250000   0.5250000), wk =   0.0123457
        k(   56) = (  -0.0000000   0.8125000   0.5625000), wk =   0.0123457
        k(   57) = (   0.0000000   0.8000000   0.6000000), wk =   0.0123457
        k(   58) = (  -0.0000000   0.7875000   0.6375000), wk =   0.0123457
        k(   59) = (   0.0000000   0.7750000   0.6750000), wk =   0.0123457
        k(   60) = (  -0.0000000   0.7625000   0.7125000), wk =   0.0123457
        k(   61) = (   0.0000000   0.7500000   0.7500000), wk =   0.0123457
        k(   62) = (   0.0000000   0.7125000   0.7125000), wk =   0.0123457
        k(   63) = (   0.0000000   0.6750000   0.6750000), wk =   0.0123457
        k(   64) = (   0.0000000   0.6375000   0.6375000), wk =   0.0123457
        k(   65) = (   0.0000000   0.6000000   0.6000000), wk =   0.0123457
        k(   66) = (   0.0000000   0.5625000   0.5625000), wk =   0.0123457
        k(   67) = (   0.0000000   0.5250000   0.5250000), wk =   0.0123457
        k(   68) = (   0.0000000   0.4875000   0.4875000), wk =   0.0123457
        k(   69) = (   0.0000000   0.4500000   0.4500000), wk =   0.0123457
        k(   70) = (   0.0000000   0.4125000   0.4125000), wk =   0.0123457
        k(   71) = (   0.0000000   0.3750000   0.3750000), wk =   0.0123457
        k(   72) = (   0.0000000   0.3375000   0.3375000), wk =   0.0123457
        k(   73) = (   0.0000000   0.3000000   0.3000000), wk =   0.0123457
        k(   74) = (   0.0000000   0.2625000   0.2625000), wk =   0.0123457
        k(   75) = (   0.0000000   0.2250000   0.2250000), wk =   0.0123457
        k(   76) = (   0.0000000   0.1875000   0.1875000), wk =   0.0123457
        k(   77) = (   0.0000000   0.1500000   0.1500000), wk =   0.0123457
        k(   78) = (   0.0000000   0.1125000   0.1125000), wk =   0.0123457
        k(   79) = (   0.0000000   0.0750000   0.0750000), wk =   0.0123457
        k(   80) = (   0.0000000   0.0375000   0.0375000), wk =   0.0123457
        k(   81) = (   0.0000000   0.0000000   0.0000000), wk =   0.0123457

                       cryst. coord.
        k(    1) = (   0.5000000   0.5000000   0.5000000), wk =   0.0123457
        k(    2) = (   0.4750000   0.4750000   0.4750000), wk =   0.0123457
        k(    3) = (   0.4500000   0.4500000   0.4500000), wk =   0.0123457
        k(    4) = (   0.4250000   0.4250000   0.4250000), wk =   0.0123457
        k(    5) = (   0.4000000   0.4000000   0.4000000), wk =   0.0123457
        k(    6) = (   0.3750000   0.3750000   0.3750000), wk =   0.0123457
        k(    7) = (   0.3500000   0.3500000   0.3500000), wk =   0.0123457
        k(    8) = (   0.3250000   0.3250000   0.3250000), wk =   0.0123457
        k(    9) = (   0.3000000   0.3000000   0.3000000), wk =   0.0123457
        k(   10) = (   0.2750000   0.2750000   0.2750000), wk =   0.0123457
        k(   11) = (   0.2500000   0.2500000   0.2500000), wk =   0.0123457
        k(   12) = (   0.2250000   0.2250000   0.2250000), wk =   0.0123457
        k(   13) = (   0.2000000   0.2000000   0.2000000), wk =   0.0123457
        k(   14) = (   0.1750000   0.1750000   0.1750000), wk =   0.0123457
        k(   15) = (   0.1500000   0.1500000   0.1500000), wk =   0.0123457
        k(   16) = (   0.1250000   0.1250000   0.1250000), wk =   0.0123457
        k(   17) = (   0.1000000   0.1000000   0.1000000), wk =   0.0123457
        k(   18) = (   0.0750000   0.0750000   0.0750000), wk =   0.0123457
        k(   19) = (   0.0500000   0.0500000   0.0500000), wk =   0.0123457
        k(   20) = (   0.0250000   0.0250000   0.0250000), wk =   0.0123457
        k(   21) = (   0.0000000   0.0000000   0.0000000), wk =   0.0123457
        k(   22) = (   0.0250000   0.0000000   0.0250000), wk =   0.0123457
        k(   23) = (   0.0500000   0.0000000   0.0500000), wk =   0.0123457
        k(   24) = (   0.0750000   0.0000000   0.0750000), wk =   0.0123457
        k(   25) = (   0.1000000   0.0000000   0.1000000), wk =   0.0123457
        k(   26) = (   0.1250000   0.0000000   0.1250000), wk =   0.0123457
        k(   27) = (   0.1500000   0.0000000   0.1500000), wk =   0.0123457
        k(   28) = (   0.1750000   0.0000000   0.1750000), wk =   0.0123457
        k(   29) = (   0.2000000   0.0000000   0.2000000), wk =   0.0123457
        k(   30) = (   0.2250000   0.0000000   0.2250000), wk =   0.0123457
        k(   31) = (   0.2500000   0.0000000   0.2500000), wk =   0.0123457
        k(   32) = (   0.2750000   0.0000000   0.2750000), wk =   0.0123457
        k(   33) = (   0.3000000   0.0000000   0.3000000), wk =   0.0123457
        k(   34) = (   0.3250000   0.0000000   0.3250000), wk =   0.0123457
        k(   35) = (   0.3500000   0.0000000   0.3500000), wk =   0.0123457
        k(   36) = (   0.3750000   0.0000000   0.3750000), wk =   0.0123457
        k(   37) = (   0.4000000   0.0000000   0.4000000), wk =   0.0123457
        k(   38) = (   0.4250000   0.0000000   0.4250000), wk =   0.0123457
        k(   39) = (   0.4500000   0.0000000   0.4500000), wk =   0.0123457
        k(   40) = (   0.4750000   0.0000000   0.4750000), wk =   0.0123457
        k(   41) = (   0.5000000   0.0000000   0.5000000), wk =   0.0123457
        k(   42) = (   0.4937500   0.0187500   0.5125000), wk =   0.0123457
        k(   43) = (   0.4875000   0.0375000   0.5250000), wk =   0.0123457
        k(   44) = (   0.4812500   0.0562500   0.5375000), wk =   0.0123457
        k(   45) = (   0.4750000   0.0750000   0.5500000), wk =   0.0123457
        k(   46) = (   0.4687500   0.0937500   0.5625000), wk =   0.0123457
        k(   47) = (   0.4625000   0.1125000   0.5750000), wk =   0.0123457
        k(   48) = (   0.4562500   0.1312500   0.5875000), wk =   0.0123457
        k(   49) = (   0.4500000   0.1500000   0.6000000), wk =   0.0123457
        k(   50) = (   0.4437500   0.1687500   0.6125000), wk =   0.0123457
        k(   51) = (   0.4375000   0.1875000   0.6250000), wk =   0.0123457
        k(   52) = (   0.4312500   0.2062500   0.6375000), wk =   0.0123457
        k(   53) = (   0.4250000   0.2250000   0.6500000), wk =   0.0123457
        k(   54) = (   0.4187500   0.2437500   0.6625000), wk =   0.0123457
        k(   55) = (   0.4125000   0.2625000   0.6750000), wk =   0.0123457
        k(   56) = (   0.4062500   0.2812500   0.6875000), wk =   0.0123457
        k(   57) = (   0.4000000   0.3000000   0.7000000), wk =   0.0123457
        k(   58) = (   0.3937500   0.3187500   0.7125000), wk =   0.0123457
        k(   59) = (   0.3875000   0.3375000   0.7250000), wk =   0.0123457
        k(   60) = (   0.3812500   0.3562500   0.7375000), wk =   0.0123457
        k(   61) = (   0.3750000   0.3750000   0.7500000), wk =   0.0123457
        k(   62) = (   0.3562500   0.3562500   0.7125000), wk =   0.0123457
        k(   63) = (   0.3375000   0.3375000   0.6750000), wk =   0.0123457
        k(   64) = (   0.3187500   0.3187500   0.6375000), wk =   0.0123457
        k(   65) = (   0.3000000   0.3000000   0.6000000), wk =   0.0123457
        k(   66) = (   0.2812500   0.2812500   0.5625000), wk =   0.0123457
        k(   67) = (   0.2625000   0.2625000   0.5250000), wk =   0.0123457
        k(   68) = (   0.2437500   0.2437500   0.4875000), wk =   0.0123457
        k(   69) = (   0.2250000   0.2250000   0.4500000), wk =   0.0123457
        k(   70) = (   0.2062500   0.2062500   0.4125000), wk =   0.0123457
        k(   71) = (   0.1875000   0.1875000   0.3750000), wk =   0.0123457
        k(   72) = (   0.1687500   0.1687500   0.3375000), wk =   0.0123457
        k(   73) = (   0.1500000   0.1500000   0.3000000), wk =   0.0123457
        k(   74) = (   0.1312500   0.1312500   0.2625000), wk =   0.0123457
        k(   75) = (   0.1125000   0.1125000   0.2250000), wk =   0.0123457
        k(   76) = (   0.0937500   0.0937500   0.1875000), wk =   0.0123457
        k(   77) = (   0.0750000   0.0750000   0.1500000), wk =   0.0123457
        k(   78) = (   0.0562500   0.0562500   0.1125000), wk =   0.0123457
        k(   79) = (   0.0375000   0.0375000   0.0750000), wk =   0.0123457
        k(   80) = (   0.0187500   0.0187500   0.0375000), wk =   0.0123457
        k(   81) = (   0.0000000   0.0000000   0.0000000), wk =   0.0123457

     Dense  grid:    14553 G-vectors     FFT dimensions: (  36,  36,  36)

     Dynamical RAM for                 wfc:       0.45 MB

     Dynamical RAM for     wfc (w. buffer):       0.45 MB

     Dynamical RAM for           str. fact:       0.22 MB

     Dynamical RAM for           local pot:       0.00 MB

     Dynamical RAM for          nlocal pot:       0.67 MB

     Dynamical RAM for                qrad:       5.95 MB

     Dynamical RAM for          rho,v,vnew:       3.47 MB

     Dynamical RAM for           G-vectors:       0.47 MB

     Dynamical RAM for          h,s,v(r/c):       0.19 MB

     Dynamical RAM for          <psi|beta>:       0.02 MB

     Dynamical RAM for                 psi:       1.78 MB

     Dynamical RAM for                hpsi:       1.78 MB

     Dynamical RAM for                spsi:       1.78 MB

     Dynamical RAM for      wfcinit/wfcrot:       0.67 MB

     Dynamical RAM for           addusdens:      67.84 MB

     Estimated static dynamical RAM per process >      12.98 MB

     Estimated max dynamical RAM per process >      80.83 MB

     Estimated total dynamical RAM >     161.66 MB

     The potential is recalculated from file :
     ./outputs/alas.save/charge-density

     Starting wfcs are   16 randomized atomic wfcs
     Checking if some PAW data can be deallocated... 
       PAW data deallocated on    1 nodes for type:  1
       PAW data deallocated on    1 nodes for type:  2

     Band Structure Calculation
     Davidson diagonalization with overlap

     Computing kpt #:     1  of    81
     total cpu time spent up to now is        2.4 secs

     Computing kpt #:     2  of    81
     total cpu time spent up to now is        2.8 secs

     Computing kpt #:     3  of    81
     total cpu time spent up to now is        3.2 secs

     Computing kpt #:     4  of    81
     total cpu time spent up to now is        3.6 secs

     Computing kpt #:     5  of    81
     total cpu time spent up to now is        4.1 secs

     Computing kpt #:     6  of    81
     total cpu time spent up to now is        4.6 secs

     Computing kpt #:     7  of    81
     total cpu time spent up to now is        5.1 secs

     Computing kpt #:     8  of    81
     total cpu time spent up to now is        5.5 secs

     Computing kpt #:     9  of    81
     total cpu time spent up to now is        6.0 secs

     Computing kpt #:    10  of    81
     total cpu time spent up to now is        6.5 secs

     Computing kpt #:    11  of    81
     total cpu time spent up to now is        7.0 secs

     Computing kpt #:    12  of    81
     total cpu time spent up to now is        7.4 secs

     Computing kpt #:    13  of    81
     total cpu time spent up to now is        8.1 secs

     Computing kpt #:    14  of    81
     total cpu time spent up to now is        8.7 secs

     Computing kpt #:    15  of    81
     total cpu time spent up to now is        9.1 secs

     Computing kpt #:    16  of    81
     total cpu time spent up to now is        9.6 secs

     Computing kpt #:    17  of    81
     total cpu time spent up to now is       10.0 secs

     Computing kpt #:    18  of    81
     total cpu time spent up to now is       10.4 secs

     Computing kpt #:    19  of    81
     total cpu time spent up to now is       10.9 secs

     Computing kpt #:    20  of    81
     total cpu time spent up to now is       11.3 secs

     Computing kpt #:    21  of    81
     total cpu time spent up to now is       11.7 secs

     Computing kpt #:    22  of    81
     total cpu time spent up to now is       12.1 secs

     Computing kpt #:    23  of    81
     total cpu time spent up to now is       12.5 secs

     Computing kpt #:    24  of    81
     total cpu time spent up to now is       13.0 secs

     Computing kpt #:    25  of    81
     total cpu time spent up to now is       13.4 secs

     Computing kpt #:    26  of    81
     total cpu time spent up to now is       13.9 secs

     Computing kpt #:    27  of    81
     total cpu time spent up to now is       14.4 secs

     Computing kpt #:    28  of    81
     total cpu time spent up to now is       14.8 secs

     Computing kpt #:    29  of    81
     total cpu time spent up to now is       15.3 secs

     Computing kpt #:    30  of    81
     total cpu time spent up to now is       15.7 secs

     Computing kpt #:    31  of    81
     total cpu time spent up to now is       16.2 secs

     Computing kpt #:    32  of    81
     total cpu time spent up to now is       16.6 secs

     Computing kpt #:    33  of    81
     total cpu time spent up to now is       17.0 secs

     Computing kpt #:    34  of    81
     total cpu time spent up to now is       17.4 secs

     Computing kpt #:    35  of    81
     total cpu time spent up to now is       17.9 secs

     Computing kpt #:    36  of    81
     total cpu time spent up to now is       18.3 secs

     Computing kpt #:    37  of    81
     total cpu time spent up to now is       18.8 secs

     Computing kpt #:    38  of    81
     total cpu time spent up to now is       19.2 secs

     Computing kpt #:    39  of    81
     total cpu time spent up to now is       19.7 secs

     Computing kpt #:    40  of    81
     total cpu time spent up to now is        7.4 secs

     Computing kpt #:    41  of    81
     total cpu time spent up to now is        7.8 secs

     Computing kpt #:    42  of    81
     total cpu time spent up to now is        8.3 secs

     Computing kpt #:    43  of    81
     total cpu time spent up to now is        8.8 secs

     Computing kpt #:    44  of    81
     total cpu time spent up to now is        9.3 secs

     Computing kpt #:    45  of    81
     total cpu time spent up to now is        9.9 secs

     Computing kpt #:    46  of    81
     total cpu time spent up to now is       10.4 secs

     Computing kpt #:    47  of    81
     total cpu time spent up to now is       11.0 secs

     Computing kpt #:    48  of    81
     total cpu time spent up to now is       11.6 secs

     Computing kpt #:    49  of    81
     total cpu time spent up to now is       12.1 secs

     Computing kpt #:    50  of    81
     total cpu time spent up to now is       12.6 secs

     Computing kpt #:    51  of    81
     total cpu time spent up to now is       13.2 secs

     Computing kpt #:    52  of    81
     total cpu time spent up to now is       13.6 secs

     Computing kpt #:    53  of    81
     total cpu time spent up to now is       14.2 secs

     Computing kpt #:    54  of    81
     total cpu time spent up to now is       14.7 secs

     Computing kpt #:    55  of    81
     total cpu time spent up to now is       15.1 secs

     Computing kpt #:    56  of    81
     total cpu time spent up to now is       15.6 secs

     Computing kpt #:    57  of    81
     total cpu time spent up to now is       16.2 secs

     Computing kpt #:    58  of    81
     total cpu time spent up to now is       16.7 secs

     Computing kpt #:    59  of    81
     total cpu time spent up to now is       17.3 secs

     Computing kpt #:    60  of    81
     total cpu time spent up to now is       17.9 secs

     Computing kpt #:    61  of    81
     total cpu time spent up to now is       18.4 secs

     Computing kpt #:    62  of    81
     total cpu time spent up to now is       19.0 secs

     Computing kpt #:    63  of    81
     total cpu time spent up to now is       19.6 secs

     Computing kpt #:    64  of    81
     total cpu time spent up to now is       20.2 secs

     Computing kpt #:    65  of    81
     total cpu time spent up to now is       20.7 secs

     Computing kpt #:    66  of    81
     total cpu time spent up to now is       21.1 secs

     Computing kpt #:    67  of    81
     total cpu time spent up to now is       21.6 secs

     Computing kpt #:    68  of    81
     total cpu time spent up to now is       22.1 secs

     Computing kpt #:    69  of    81
     total cpu time spent up to now is       22.5 secs

     Computing kpt #:    70  of    81
     total cpu time spent up to now is       23.0 secs

     Computing kpt #:    71  of    81
     total cpu time spent up to now is       23.4 secs

     Computing kpt #:    72  of    81
     total cpu time spent up to now is       23.8 secs

     Computing kpt #:    73  of    81
     total cpu time spent up to now is       24.3 secs

     Computing kpt #:    74  of    81
     total cpu time spent up to now is       24.8 secs

     Computing kpt #:    75  of    81
     total cpu time spent up to now is       25.2 secs

     Computing kpt #:    76  of    81
     total cpu time spent up to now is       25.7 secs

     Computing kpt #:    77  of    81
     total cpu time spent up to now is       26.1 secs

     Computing kpt #:    78  of    81
     total cpu time spent up to now is       26.5 secs

     Computing kpt #:    79  of    81
     total cpu time spent up to now is       26.9 secs

     Computing kpt #:    80  of    81
     total cpu time spent up to now is       13.2 secs

     Computing kpt #:    81  of    81
     total cpu time spent up to now is       13.6 secs

     ethr =  1.25E-10,  avg # of iterations = 17.3

     total cpu time spent up to now is       13.6 secs

     End of band structure calculation

          k = 0.5000 0.5000 0.5000 (  1850 PWs)   bands (ev):

    -5.5637  -5.5637  -0.6941  -0.6941   3.9675   3.9675   4.1417   4.1417
     7.0193   7.0193   9.5382   9.5382   9.5648   9.5648  12.6809  12.6809

          k = 0.4750 0.4750 0.4750 (  1826 PWs)   bands (ev):

    -5.5773  -5.5773  -0.6668  -0.6668   3.9712   3.9712   4.1455   4.1455
     7.0247   7.0247   9.5436   9.5436   9.5703   9.5703  12.6832  12.6832

          k = 0.4500 0.4500 0.4500 (  1826 PWs)   bands (ev):

    -5.6168  -5.6168  -0.5860  -0.5860   3.9823   3.9823   4.1567   4.1567
     7.0406   7.0406   9.5594   9.5594   9.5866   9.5866  12.6883  12.6883

          k = 0.4250 0.4250 0.4250 (  1838 PWs)   bands (ev):

    -5.6796  -5.6796  -0.4546  -0.4546   4.0006   4.0006   4.1753   4.1753
     7.0671   7.0671   9.5847   9.5847   9.6126   9.6126  12.6907  12.6907

          k = 0.4000 0.4000 0.4000 (  1832 PWs)   bands (ev):

    -5.7613  -5.7613  -0.2771  -0.2771   4.0261   4.0261   4.2012   4.2012
     7.1038   7.1038   9.6178   9.6178   9.6468   9.6468  12.6791  12.6791

          k = 0.3750 0.3750 0.3750 (  1844 PWs)   bands (ev):

    -5.8573  -5.8573  -0.0583  -0.0583   4.0584   4.0584   4.2340   4.2340
     7.1504   7.1504   9.6562   9.6562   9.6866   9.6866  12.6340  12.6340

          k = 0.3500 0.3500 0.3500 (  1847 PWs)   bands (ev):

    -5.9630  -5.9630   0.1966   0.1966   4.0974   4.0974   4.2736   4.2736
     7.2063   7.2063   9.6966   9.6966   9.7286   9.7286  12.5279  12.5279

          k = 0.3250 0.3250 0.3250 (  1853 PWs)   bands (ev):

    -6.0742  -6.0742   0.4829   0.4829   4.1425   4.1425   4.3195   4.3195
     7.2706   7.2706   9.7343   9.7343   9.7682   9.7683  12.3373  12.3373

          k = 0.3000 0.3000 0.3000 (  1841 PWs)   bands (ev):

    -6.1871  -6.1871   0.7963   0.7963   4.1933   4.1933   4.3713   4.3713
     7.3421   7.3421   9.7638   9.7638   9.7998   9.7998  12.0624  12.0624

          k = 0.2750 0.2750 0.2750 (  1841 PWs)   bands (ev):

    -6.2987  -6.2987   1.1331   1.1331   4.2490   4.2490   4.4281   4.4281
     7.4190   7.4190   9.7789   9.7789   9.8169   9.8169  11.7254  11.7254

          k = 0.2500 0.2500 0.2500 (  1847 PWs)   bands (ev):

    -6.4066  -6.4066   1.4895   1.4895   4.3089   4.3089   4.4892   4.4892
     7.4986   7.4986   9.7738   9.7738   9.8134   9.8135  11.3527  11.3527

          k = 0.2250 0.2250 0.2250 (  1838 PWs)   bands (ev):

    -6.5086  -6.5086   1.8623   1.8623   4.3719   4.3719   4.5534   4.5535
     7.5767   7.5767   9.7446   9.7446   9.7851   9.7852  10.9648  10.9648

          k = 0.2000 0.2000 0.2000 (  1841 PWs)   bands (ev):

    -6.6033  -6.6033   2.2480   2.2480   4.4367   4.4367   4.6196   4.6196
     7.6472   7.6472   9.6908   9.6908   9.7314   9.7314  10.5774  10.5774

          k = 0.1750 0.1750 0.1750 (  1835 PWs)   bands (ev):

    -6.6892  -6.6892   2.6431   2.6431   4.5020   4.5020   4.6859   4.6859
     7.6999   7.6999   9.6161   9.6161   9.6559   9.6559  10.2057  10.2057

          k = 0.1500 0.1500 0.1500 (  1835 PWs)   bands (ev):

    -6.7654  -6.7654   3.0429   3.0429   4.5662   4.5662   4.7507   4.7507
     7.7197   7.7197   9.5276   9.5276   9.5657   9.5658   9.8675   9.8675

          k = 0.1250 0.1250 0.1250 (  1841 PWs)   bands (ev):

    -6.8310  -6.8310   3.4415   3.4415   4.6278   4.6278   4.8116   4.8116
     7.6862   7.6862   9.4335   9.4335   9.4699   9.4699   9.5857   9.5857

          k = 0.1000 0.1000 0.1000 (  1841 PWs)   bands (ev):

    -6.8855  -6.8855   3.8293   3.8293   4.6859   4.6859   4.8662   4.8662
     7.5811   7.5811   9.3402   9.3402   9.3774   9.3774   9.3837   9.3837

          k = 0.0750 0.0750 0.0750 (  1841 PWs)   bands (ev):

    -6.9284  -6.9284   4.1890   4.1890   4.7427   4.7427   4.9122   4.9122
     7.4071   7.4071   9.2452   9.2452   9.2765   9.2765   9.2965   9.2965

          k = 0.0500 0.0500 0.0500 (  1829 PWs)   bands (ev):

    -6.9592  -6.9592   4.4814   4.4814   4.8115   4.8115   4.9471   4.9471
     7.1992   7.1992   9.1828   9.1828   9.2179   9.2179   9.2337   9.2337

          k = 0.0250 0.0250 0.0250 (  1834 PWs)   bands (ev):

    -6.9778  -6.9778   4.6395   4.6395   4.9150   4.9150   4.9690   4.9690
     7.0205   7.0205   9.1507   9.1507   9.1883   9.1883   9.1940   9.1940

          k = 0.0000 0.0000 0.0000 (  1837 PWs)   bands (ev):

    -6.9840  -6.9840   4.6774   4.6774   4.9764   4.9764   4.9764   4.9764
     6.9473   6.9473   9.1399   9.1399   9.1804   9.1804   9.1804   9.1804

          k = 0.0000 0.0500 0.0000 (  1836 PWs)   bands (ev):

    -6.9757  -6.9757   4.6306   4.6306   4.9059   4.9059   4.9512   4.9512
     7.0459   7.0459   9.1290   9.1290   9.1970   9.1970   9.2170   9.2170

          k = 0.0000 0.1000 0.0000 (  1836 PWs)   bands (ev):

    -6.9509  -6.9509   4.4685   4.4685   4.7601   4.7601   4.8785   4.8785
     7.2990   7.2990   9.0414   9.0414   9.3028   9.3028   9.3244   9.3244

          k = 0.0000 0.1500 0.0000 (  1840 PWs)   bands (ev):

    -6.9098  -6.9098   4.1894   4.1894   4.6145   4.6145   4.7662   4.7662
     7.6349   7.6349   8.9009   8.9009   9.4763   9.4763   9.4959   9.4959

          k = 0.0000 0.2000 0.0000 (  1840 PWs)   bands (ev):

    -6.8525  -6.8525   3.8498   3.8498   4.4643   4.4643   4.6243   4.6243
     8.0018   8.0018   8.7240   8.7240   9.7031   9.7031   9.7228   9.7228

          k = 0.0000 0.2500 0.0000 (  1840 PWs)   bands (ev):

    -6.7797  -6.7797   3.4864   3.4864   4.3032   4.3032   4.4628   4.4628
     8.3596   8.3596   8.5252   8.5252   9.9725   9.9725   9.9955   9.9955

          k = 0.0000 0.3000 0.0000 (  1840 PWs)   bands (ev):

    -6.6917  -6.6917   3.1152   3.1152   4.1339   4.1339   4.2903   4.2903
     8.3085   8.3085   8.6734   8.6734  10.2760  10.2760  10.3044  10.3044

          k = 0.0000 0.3500 0.0000 (  1832 PWs)   bands (ev):

    -6.5894  -6.5894   2.7437   2.7437   3.9614   3.9614   4.1136   4.1136
     8.0908   8.0908   8.8808   8.8808  10.6064  10.6064  10.6414  10.6414

          k = 0.0000 0.4000 0.0000 (  1832 PWs)   bands (ev):

    -6.4736  -6.4736   2.3761   2.3761   3.7902   3.7902   3.9382   3.9382
     7.8735   7.8735   8.9378   8.9378  10.9576  10.9576  11.0003  11.0003

          k = 0.0000 0.4500 0.0000 (  1820 PWs)   bands (ev):

    -6.3457  -6.3457   2.0153   2.0153   3.6240   3.6240   3.7680   3.7680
     7.6612   7.6612   8.8445   8.8445  11.3253  11.3253  11.3762  11.3762

          k = 0.0000 0.5000 0.0000 (  1828 PWs)   bands (ev):

    -6.2071  -6.2071   1.6635   1.6635   3.4657   3.4657   3.6062   3.6062
     7.4571   7.4571   8.6521   8.6521  11.7063  11.7063  11.7652  11.7652

          k = 0.0000 0.5500 0.0000 (  1824 PWs)   bands (ev):

    -6.0598  -6.0598   1.3230   1.3230   3.3178   3.3178   3.4551   3.4551
     7.2635   7.2635   8.4157   8.4157  12.0984  12.0984  12.1645  12.1645

          k = 0.0000 0.6000 0.0000 (  1832 PWs)   bands (ev):

    -5.9062  -5.9062   0.9962   0.9962   3.1818   3.1818   3.3164   3.3164
     7.0821   7.0821   8.1716   8.1716  12.4990  12.4990  12.5715  12.5715

          k = 0.0000 0.6500 0.0000 (  1832 PWs)   bands (ev):

    -5.7495  -5.7495   0.6863   0.6863   3.0594   3.0594   3.1916   3.1916
     6.9146   6.9146   7.9404   7.9404  12.9053  12.9053  12.9840  12.9840

          k = 0.0000 0.7000 0.0000 (  1832 PWs)   bands (ev):

    -5.5935  -5.5935   0.3974   0.3974   2.9514   2.9514   3.0818   3.0818
     6.7628   6.7628   7.7332   7.7332  13.3144  13.3144  13.3992  13.3992

          k = 0.0000 0.7500 0.0000 (  1808 PWs)   bands (ev):

    -5.4434  -5.4434   0.1343   0.1343   2.8589   2.8589   2.9876   2.9876
     6.6288   6.6288   7.5556   7.5556  13.7224  13.7224  13.8137  13.8137

          k = 0.0000 0.8000 0.0000 (  1808 PWs)   bands (ev):

    -5.3050  -5.3050  -0.0966  -0.0966   2.7824   2.7824   2.9099   2.9099
     6.5148   6.5148   7.4103   7.4103  14.1227  14.1227  14.2216  14.2216

          k = 0.0000 0.8500 0.0000 (  1816 PWs)   bands (ev):

    -5.1855  -5.1855  -0.2883  -0.2883   2.7224   2.7224   2.8489   2.8489
     6.4231   6.4231   7.2978   7.2978  14.5036  14.5036  14.6116  14.6116

          k = 0.0000 0.9000 0.0000 (  1800 PWs)   bands (ev):

    -5.0925  -5.0925  -0.4331  -0.4331   2.6793   2.6793   2.8052   2.8052
     6.3559   6.3559   7.2181   7.2181  14.8419  14.8419  14.9610  14.9610

          k = 0.0000 0.9500 0.0000 (  1792 PWs)   bands (ev):

    -5.0331  -5.0331  -0.5235  -0.5235   2.6534   2.6534   2.7788   2.7788
     6.3148   6.3148   7.1706   7.1706  15.0927  15.0927  15.2238  15.2238

          k = 0.0000 1.0000 0.0000 (  1772 PWs)   bands (ev):

    -5.0126  -5.0126  -0.5543  -0.5543   2.6447   2.6447   2.7700   2.7700
     6.3010   6.3010   7.1548   7.1548  15.1894  15.1894  15.3264  15.3264

          k = 0.0000 0.9875 0.0375 (  1786 PWs)   bands (ev):

    -5.0136  -5.0134  -0.5514  -0.5461   2.6251   2.6384   2.7558   2.7570
     6.3293   6.3302   7.1801   7.1890  15.1232  15.1372  15.2762  15.2884

          k = 0.0000 0.9750 0.0750 (  1800 PWs)   bands (ev):

    -5.0162  -5.0158  -0.5375  -0.5269   2.5801   2.6076   2.7154   2.7198
     6.4135   6.4154   7.2638   7.2809  14.8878  14.9187  15.1831  15.2290

          k = 0.0000 0.9625 0.1125 (  1808 PWs)   bands (ev):

    -5.0202  -5.0196  -0.5136  -0.4976   2.5122   2.5560   2.6521   2.6656
     6.5498   6.5526   7.4019   7.4265  14.5052  14.5420  15.0648  15.1438

          k = 0.0000 0.9500 0.1500 (  1812 PWs)   bands (ev):

    -5.0256  -5.0248  -0.4812  -0.4594   2.4246   2.4871   2.5742   2.6023
     6.7326   6.7365   7.5889   7.6200  14.0331  14.0698  14.8892  14.9948

          k = 0.0000 0.9375 0.1875 (  1819 PWs)   bands (ev):

    -5.0319  -5.0309  -0.4420  -0.4142   2.3218   2.4015   2.4950   2.5377
     6.9557   6.9610   7.8189   7.8555  13.5132  13.5478  14.6442  14.7534

          k = 0.0000 0.9250 0.2250 (  1819 PWs)   bands (ev):

    -5.0388  -5.0377  -0.3986  -0.3646   2.2087   2.2997   2.4267   2.4786
     7.2133   7.2203   8.0858   8.1272  12.9721  13.0038  14.3455  14.4411

          k = 0.0000 0.9125 0.2625 (  1821 PWs)   bands (ev):

    -5.0460  -5.0448  -0.3540  -0.3135   2.0907   2.1880   2.3748   2.4309
     7.4997   7.5087   8.3844   8.4301  12.4256  12.4543  14.0169  14.0973

          k = 0.0000 0.9000 0.3000 (  1820 PWs)   bands (ev):

    -5.0532  -5.0519  -0.3110  -0.2640   1.9725   2.0734   2.3420   2.3995
     7.8093   7.8208   8.7100   8.7599  11.8844  11.9096  13.6756  13.7434

          k = 0.0000 0.8875 0.3375 (  1821 PWs)   bands (ev):

    -5.0599  -5.0585  -0.2729  -0.2195   1.8579   1.9614   2.3310   2.3886
     8.1355   8.1501   9.0583   9.1126  11.3580  11.3787  13.3317  13.3896

          k =-0.0000 0.8750 0.3750 (  1824 PWs)   bands (ev):

    -5.0658  -5.0643  -0.2423  -0.1829   1.7502   1.8554   2.3442   2.4009
     8.4676   8.4869   9.4247   9.4843  10.8593  10.8732  12.9919  13.0413

          k = 0.0000 0.8625 0.4125 (  1822 PWs)   bands (ev):

    -5.0707  -5.0692  -0.2210  -0.1564   1.6522   1.7583   2.3828   2.4377
     8.7805   8.8081   9.7987   9.8674  10.4208  10.4210  12.6615  12.7031

          k = 0.0000 0.8500 0.4500 (  1824 PWs)   bands (ev):

    -5.0742  -5.0727  -0.2097  -0.1412   1.5658   1.6723   2.4458   2.4983
     8.9906   9.0336  10.0178  10.0514  10.2774  10.3147  12.3471  12.3802

          k = 0.0000 0.8375 0.4875 (  1824 PWs)   bands (ev):

    -5.0762  -5.0747  -0.2083  -0.1372   1.4929   1.5989   2.5307   2.5799
     8.9182   8.9683  10.0456  10.0652  10.6399  10.7068  12.0611  12.0827

          k =-0.0000 0.8250 0.5250 (  1823 PWs)   bands (ev):

    -5.0766  -5.0751  -0.2155  -0.1431   1.4346   1.5394   2.6325   2.6778
     8.6147   8.6574  10.2921  10.3136  11.0229  11.1071  11.8388  11.8429

          k =-0.0000 0.8125 0.5625 (  1823 PWs)   bands (ev):

    -5.0753  -5.0737  -0.2294  -0.1570   1.3919   1.4948   2.7444   2.7848
     8.2580   8.2936  10.5473  10.5837  11.3160  11.3983  11.8087  11.8172

          k = 0.0000 0.8000 0.6000 (  1821 PWs)   bands (ev):

    -5.0721  -5.0706  -0.2479  -0.1768   1.3651   1.4655   2.8574   2.8921
     7.9148   7.9444  10.6167  10.6763  11.5270  11.5674  12.1079  12.1383

          k =-0.0000 0.7875 0.6375 (  1823 PWs)   bands (ev):

    -5.0673  -5.0658  -0.2690  -0.2000   1.3545   1.4520   2.9604   2.9881
     7.6116   7.6355  10.4839  10.5465  11.8570  11.8933  12.5097  12.5634

          k = 0.0000 0.7750 0.6750 (  1820 PWs)   bands (ev):

    -5.0608  -5.0593  -0.2908  -0.2244   1.3600   1.4544   3.0403   3.0599
     7.3661   7.3839  10.2754  10.3346  12.2648  12.3017  12.9162  12.9880

          k =-0.0000 0.7625 0.7125 (  1822 PWs)   bands (ev):

    -5.0529  -5.0514  -0.3115  -0.2482   1.3814   1.4725   3.0836   3.0941
     7.1927   7.2047  10.0494  10.1054  12.6968  12.7315  13.2375  13.2951

          k = 0.0000 0.7500 0.7500 (  1822 PWs)   bands (ev):

    -5.0438  -5.0423  -0.3298  -0.2697   1.4181   1.5060   3.0781   3.0811
     7.1009   7.1103   9.8248   9.8785  13.0715  13.0716  13.2468  13.2832

          k = 0.0000 0.7125 0.7125 (  1818 PWs)   bands (ev):

    -5.0806  -5.0792  -0.2799  -0.2119   1.3210   1.4168   3.1908   3.1935
     7.2559   7.2645  10.4842  10.5448  12.6724  12.6736  12.8867  12.9376

          k = 0.0000 0.6750 0.6750 (  1816 PWs)   bands (ev):

    -5.1357  -5.1343  -0.2281  -0.1561   1.2982   1.3979   3.3149   3.3175
     7.4235   7.4311  11.0763  11.1433  12.2909  12.2915  12.5833  12.6103

          k = 0.0000 0.6375 0.6375 (  1822 PWs)   bands (ev):

    -5.2108  -5.2096  -0.1663  -0.0946   1.3469   1.4464   3.4486   3.4511
     7.6023   7.6087  11.4036  11.4471  11.9287  11.9306  12.2569  12.3132

          k = 0.0000 0.6000 0.6000 (  1820 PWs)   bands (ev):

    -5.3064  -5.3053  -0.0838  -0.0153   1.4570   1.5533   3.5896   3.5921
     7.7892   7.7939  11.3457  11.3548  11.5870  11.5927  11.9074  12.0036

          k = 0.0000 0.5625 0.5625 (  1820 PWs)   bands (ev):

    -5.4208  -5.4200   0.0291   0.0929   1.6162   1.7081   3.7353   3.7377
     7.9791   7.9815  11.0921  11.1356  11.2679  11.2776  11.5883  11.7000

          k = 0.0000 0.5250 0.5250 (  1830 PWs)   bands (ev):

    -5.5509  -5.5503   0.1790   0.2377   1.8138   1.9009   3.8825   3.8850
     8.1635   8.1647  10.8115  10.8720  10.9748  10.9865  11.3111  11.4272

          k = 0.0000 0.4875 0.4875 (  1829 PWs)   bands (ev):

    -5.6927  -5.6923   0.3685   0.4226   2.0411   2.1237   4.0281   4.0308
     8.3287   8.3352  10.5365  10.6008  10.7105  10.7203  11.0849  11.1969

          k = 0.0000 0.4500 0.4500 (  1841 PWs)   bands (ev):

    -5.8416  -5.8413   0.5981   0.6480   2.2913   2.3700   4.1687   4.1715
     8.4624   8.4763  10.2783  10.3380  10.4731  10.4793  10.9188  11.0192

          k = 0.0000 0.4125 0.4125 (  1849 PWs)   bands (ev):

    -5.9929  -5.9927   0.8663   0.9125   2.5587   2.6340   4.3008   4.3039
     8.5488   8.5720  10.0423  10.0930  10.2597  10.2626  10.8189  10.9016

          k = 0.0000 0.3750 0.3750 (  1851 PWs)   bands (ev):

    -6.1425  -6.1424   1.1707   1.2139   2.8381   2.9103   4.4216   4.4249
     8.5777   8.6098   9.8318   9.8712  10.0681  10.0688  10.7806  10.8419

          k = 0.0000 0.3375 0.3375 (  1841 PWs)   bands (ev):

    -6.2868  -6.2867   1.5086   1.5491   3.1240   3.1934   4.5285   4.5322
     8.5493   8.5877   9.6491   9.6760   9.8963   9.8969  10.7790  10.8185

          k = 0.0000 0.3000 0.3000 (  1837 PWs)   bands (ev):

    -6.4226  -6.4225   1.8769   1.9149   3.4106   3.4772   4.6202   4.6244
     8.4734   8.5140   9.4955   9.5101   9.7434   9.7448  10.7664  10.7856

          k = 0.0000 0.2625 0.2625 (  1847 PWs)   bands (ev):

    -6.5473  -6.5473   2.2719   2.3076   3.6913   3.7548   4.6966   4.7013
     8.3612   8.4006   9.3719   9.3753   9.6091   9.6109  10.6827  10.6839

          k = 0.0000 0.2250 0.2250 (  1843 PWs)   bands (ev):

    -6.6590  -6.6590   2.6892   2.7228   3.9585   4.0184   4.7585   4.7638
     8.2193   8.2548   9.2729   9.2787   9.4926   9.4947  10.4739  10.4866

          k = 0.0000 0.1875 0.1875 (  1847 PWs)   bands (ev):

    -6.7559  -6.7559   3.1229   3.1542   4.2039   4.2593   4.8082   4.8142
     8.0467   8.0765   9.2028   9.2150   9.3936   9.3960  10.1730  10.1935

          k = 0.0000 0.1500 0.1500 (  1845 PWs)   bands (ev):

    -6.8368  -6.8368   3.5637   3.5923   4.4188   4.4679   4.8493   4.8557
     7.8364   7.8590   9.1625   9.1784   9.3122   9.3149   9.8433   9.8654

          k = 0.0000 0.1125 0.1125 (  1845 PWs)   bands (ev):

    -6.9007  -6.9007   3.9945   4.0194   4.5959   4.6359   4.8871   4.8930
     7.5834   7.5976   9.1469   9.1632   9.2487   9.2519   9.5501   9.5687

          k = 0.0000 0.0750 0.0750 (  1835 PWs)   bands (ev):

    -6.9468  -6.9468   4.3766   4.3943   4.7396   4.7650   4.9266   4.9299
     7.3030   7.3092   9.1466   9.1602   9.2041   9.2078   9.3350   9.3469

          k = 0.0000 0.0375 0.0375 (  1835 PWs)   bands (ev):

    -6.9747  -6.9747   4.6173   4.6212   4.8880   4.8933   4.9620   4.9626
     7.0545   7.0556   9.1472   9.1523   9.1832   9.1848   9.2135   9.2173

          k = 0.0000 0.0000 0.0000 (  1837 PWs)   bands (ev):

    -6.9840  -6.9840   4.6774   4.6774   4.9764   4.9764   4.9764   4.9764
     6.9473   6.9473   9.1399   9.1399   9.1804   9.1804   9.1804   9.1804

     Writing all to output data dir ./outputs/alas.save/

     init_run     :      1.30s CPU      1.48s WALL (       1 calls)
     electrons    :     33.89s CPU     11.60s WALL (       1 calls)

     Called by init_run:
     wfcinit      :      0.00s CPU      0.00s WALL (       1 calls)
     wfcinit:atom :      0.03s CPU      0.03s WALL (      81 calls)
     wfcinit:wfcr :      2.15s CPU      3.53s WALL (      81 calls)
     potinit      :      0.23s CPU      0.26s WALL (       1 calls)
     hinit0       :      0.87s CPU      0.95s WALL (       1 calls)

     Called by electrons:
     c_bands      :     33.89s CPU     11.59s WALL (       1 calls)
     v_of_rho     :      0.03s CPU      0.03s WALL (       1 calls)
     v_h          :      0.00s CPU      0.00s WALL (       1 calls)
     v_xc         :      0.03s CPU      0.03s WALL (       1 calls)
     newd         :      0.16s CPU      0.21s WALL (       1 calls)
     PAW_pot      :      0.20s CPU      0.22s WALL (       1 calls)

     Called by c_bands:
     init_us_2    :      0.04s CPU      0.06s WALL (      81 calls)
     init_us_2:cp :      0.04s CPU      0.06s WALL (      81 calls)
     cegterg      :     31.09s CPU      7.09s WALL (      95 calls)

     Called by sum_band:

     Called by *egterg:
     cdiaghg      :      0.89s CPU      0.95s WALL (    1479 calls)
     cegterg:over :      2.20s CPU      2.37s WALL (    1398 calls)
     cegterg:upda :      1.68s CPU      1.78s WALL (    1398 calls)
     cegterg:last :      1.38s CPU      1.46s WALL (     347 calls)
     h_psi        :     24.74s CPU      1.30s WALL (    1574 calls)
     s_psi        :      1.29s CPU      1.41s WALL (    1574 calls)
     g_psi        :      0.38s CPU      0.41s WALL (    1398 calls)

     Called by h_psi:
     h_psi:calbec :      1.33s CPU      1.50s WALL (    1574 calls)
     vloc_psi     :     22.05s CPU     -1.71s WALL (    1574 calls)
     add_vuspsi   :      1.29s CPU      1.42s WALL (    1574 calls)

     General routines
     calbec       :      1.32s CPU      1.49s WALL (    1574 calls)
     fft          :      0.41s CPU      0.43s WALL (      15 calls)
     fftw         :     18.61s CPU     -5.37s WALL (   67924 calls)
     davcio       :      0.05s CPU      0.07s WALL (     162 calls)

     Parallel routines

     PAW routines
     PAW_pot      :      0.20s CPU      0.22s WALL (       1 calls)

     PWSCF        :     35.89s CPU     13.98s WALL


   This run was terminated on:   7: 0:41   3Jan2025            

=------------------------------------------------------------------------------=
   JOB DONE.
=------------------------------------------------------------------------------=
