
     Program PWSCF v.7.0 starts on  3Jan2025 at  4:45: 2 

     This program is part of the open-source Quantum ESPRESSO suite
     for quantum simulation of materials; please cite
         "P. Giannozzi et al., J. Phys.:Condens. Matter 21 395502 (2009);
         "P. Giannozzi et al., J. Phys.:Condens. Matter 29 465901 (2017);
         "P. Giannozzi et al., J. Chem. Phys. 152 154105 (2020);
          URL http://www.quantum-espresso.org", 
     in publications or presentations arising from this work. More details at
     http://www.quantum-espresso.org/quote

     Parallel version (MPI & OpenMP), running on       2 processor cores
     Number of MPI processes:                 2
     Threads/MPI process:                     1

     MPI processes distributed on     1 nodes
     R & G space division:  proc/nbgrp/npool/nimage =       2
     123 MiB available memory on the printing compute node when the environment starts

     Reading input from pw.scf.wo_soc.in

     Current dimensions of program PWSCF are:
     Max number of different atomic species (ntypx) = 10
     Max number of k-points (npk) =  40000
     Max angular momentum in pseudopotentials (lmaxx) =  4
     Message from routine volume:
     axis vectors are left-handed
     file Al.pbe-n-kjpaw_psl.1.0.0.UPF: wavefunction(s)  3S 3P renormalized

     IMPORTANT: XC functional enforced from input :
     Exchange-correlation= PBE
                           (   1   4   3   4   0   0   0)
     Any further DFT definition will be discarded
     Please, verify this is what you really want

     Message from routine setup:
     using ibrav=0 with symmetry is DISCOURAGED, use correct ibrav instead

     Subspace diagonalization in iterative solution of the eigenvalue problem:
     a serial algorithm will be used


     Parallelization info
     --------------------
     sticks:   dense  smooth     PW     G-vecs:    dense   smooth      PW
     Min         395     395    120                 7276     7276    1221
     Max         398     398    121                 7277     7277    1224
     Sum         793     793    241                14553    14553    2445

     Using Slab Decomposition



     bravais-lattice index     =            0
     lattice parameter (alat)  =      10.6974  a.u.
     unit-cell volume          =     306.0343 (a.u.)^3
     number of atoms/cell      =            2
     number of atomic types    =            2
     number of electrons       =         8.00
     number of Kohn-Sham states=            8
     kinetic-energy cutoff     =      50.0000  Ry
     charge density cutoff     =     200.0000  Ry
     scf convergence threshold =      1.0E-08
     mixing beta               =       0.3000
     number of iterations used =            8  plain     mixing
     Exchange-correlation= PBE
                           (   1   4   3   4   0   0   0)

     celldm(1)=  10.697362  celldm(2)=   0.000000  celldm(3)=   0.000000
     celldm(4)=   0.000000  celldm(5)=   0.000000  celldm(6)=   0.000000

     crystal axes: (cart. coord. in units of alat)
               a(1) = (   0.500000   0.500000   0.000000 )  
               a(2) = (   0.500000   0.000000   0.500000 )  
               a(3) = (   0.000000   0.500000   0.500000 )  

     reciprocal axes: (cart. coord. in units 2 pi/alat)
               b(1) = (  1.000000  1.000000 -1.000000 )  
               b(2) = (  1.000000 -1.000000  1.000000 )  
               b(3) = ( -1.000000  1.000000  1.000000 )  


     PseudoPot. # 1 for As read from file:
     ../Pseudopotentials/As.pbe-n-kjpaw_psl.1.0.0.UPF
     MD5 check sum: 21b474db91924651be503153fb2dbf55
     Pseudo is Projector augmented-wave + core cor, Zval =  5.0
     Generated using &quot;atomic&quot; code by A. Dal Corso  v.6.3
     Shape of augmentation charge: PSQ
     Using radial grid of 1209 points,  4 beta functions with: 
                l(1) =   0
                l(2) =   0
                l(3) =   1
                l(4) =   1
     Q(r) pseudized with 0 coefficients 


     PseudoPot. # 2 for Al read from file:
     ../Pseudopotentials/Al.pbe-n-kjpaw_psl.1.0.0.UPF
     MD5 check sum: 502b6b27b9c6270cab5dd1084b96fa6d
     Pseudo is Projector augmented-wave + core cor, Zval =  3.0
     Generated using &quot;atomic&quot; code by A. Dal Corso  v.6.3
     Shape of augmentation charge: PSQ
     Using radial grid of 1135 points,  6 beta functions with: 
                l(1) =   0
                l(2) =   0
                l(3) =   1
                l(4) =   1
                l(5) =   2
                l(6) =   2
     Q(r) pseudized with 0 coefficients 


     atomic species   valence    mass     pseudopotential
        As             5.00    74.92100     As( 1.00)
        Al             3.00    26.98100     Al( 1.00)

     Starting magnetic structure 
     atomic species   magnetization
        As           1.000
        Al           1.000

     24 Sym. Ops. (no inversion) found


                                    s                        frac. trans.

      isym =  1     identity                                     

 cryst.   s( 1) = (     1          0          0      )
                  (     0          1          0      )
                  (     0          0          1      )

 cart.    s( 1) = (  1.0000000  0.0000000  0.0000000 )
                  (  0.0000000  1.0000000  0.0000000 )
                  (  0.0000000  0.0000000  1.0000000 )


      isym =  2     180 deg rotation - cart. axis [0,0,1]        

 cryst.   s( 2) = (    -1          0          0      )
                  (    -1          0          1      )
                  (    -1          1          0      )

 cart.    s( 2) = ( -1.0000000  0.0000000  0.0000000 )
                  (  0.0000000 -1.0000000  0.0000000 )
                  (  0.0000000  0.0000000  1.0000000 )


      isym =  3     180 deg rotation - cart. axis [0,1,0]        

 cryst.   s( 3) = (     0         -1          1      )
                  (     0         -1          0      )
                  (     1         -1          0      )

 cart.    s( 3) = ( -1.0000000  0.0000000  0.0000000 )
                  (  0.0000000  1.0000000  0.0000000 )
                  (  0.0000000  0.0000000 -1.0000000 )


      isym =  4     180 deg rotation - cart. axis [1,0,0]        

 cryst.   s( 4) = (     0          1         -1      )
                  (     1          0         -1      )
                  (     0          0         -1      )

 cart.    s( 4) = (  1.0000000  0.0000000  0.0000000 )
                  (  0.0000000 -1.0000000  0.0000000 )
                  (  0.0000000  0.0000000 -1.0000000 )


      isym =  5     120 deg rotation - cart. axis [-1,-1,-1]     

 cryst.   s( 5) = (     0          1          0      )
                  (     0          0          1      )
                  (     1          0          0      )

 cart.    s( 5) = (  0.0000000  1.0000000  0.0000000 )
                  (  0.0000000  0.0000000  1.0000000 )
                  (  1.0000000  0.0000000  0.0000000 )


      isym =  6     120 deg rotation - cart. axis [-1,1,1]       

 cryst.   s( 6) = (     0         -1          0      )
                  (     1         -1          0      )
                  (     0         -1          1      )

 cart.    s( 6) = (  0.0000000 -1.0000000  0.0000000 )
                  (  0.0000000  0.0000000  1.0000000 )
                  ( -1.0000000  0.0000000  0.0000000 )


      isym =  7     120 deg rotation - cart. axis [1,1,-1]       

 cryst.   s( 7) = (     1          0         -1      )
                  (     0          0         -1      )
                  (     0          1         -1      )

 cart.    s( 7) = (  0.0000000  1.0000000  0.0000000 )
                  (  0.0000000  0.0000000 -1.0000000 )
                  ( -1.0000000  0.0000000  0.0000000 )


      isym =  8     120 deg rotation - cart. axis [1,-1,1]       

 cryst.   s( 8) = (    -1          0          1      )
                  (    -1          1          0      )
                  (    -1          0          0      )

 cart.    s( 8) = (  0.0000000 -1.0000000  0.0000000 )
                  (  0.0000000  0.0000000 -1.0000000 )
                  (  1.0000000  0.0000000  0.0000000 )


      isym =  9     120 deg rotation - cart. axis [1,1,1]        

 cryst.   s( 9) = (     0          0          1      )
                  (     1          0          0      )
                  (     0          1          0      )

 cart.    s( 9) = (  0.0000000  0.0000000  1.0000000 )
                  (  1.0000000  0.0000000  0.0000000 )
                  (  0.0000000  1.0000000  0.0000000 )


      isym = 10     120 deg rotation - cart. axis [-1,1,-1]      

 cryst.   s(10) = (     0          0         -1      )
                  (     0          1         -1      )
                  (     1          0         -1      )

 cart.    s(10) = (  0.0000000  0.0000000  1.0000000 )
                  ( -1.0000000  0.0000000  0.0000000 )
                  (  0.0000000 -1.0000000  0.0000000 )


      isym = 11     120 deg rotation - cart. axis [1,-1,-1]      

 cryst.   s(11) = (    -1          1          0      )
                  (    -1          0          0      )
                  (    -1          0          1      )

 cart.    s(11) = (  0.0000000  0.0000000 -1.0000000 )
                  ( -1.0000000  0.0000000  0.0000000 )
                  (  0.0000000  1.0000000  0.0000000 )


      isym = 12     120 deg rotation - cart. axis [-1,-1,1]      

 cryst.   s(12) = (     1         -1          0      )
                  (     0         -1          1      )
                  (     0         -1          0      )

 cart.    s(12) = (  0.0000000  0.0000000 -1.0000000 )
                  (  1.0000000  0.0000000  0.0000000 )
                  (  0.0000000 -1.0000000  0.0000000 )


      isym = 13     inv. 180 deg rotation - cart. axis [1,1,0]   

 cryst.   s(13) = (    -1          0          0      )
                  (    -1          1          0      )
                  (    -1          0          1      )

 cart.    s(13) = (  0.0000000 -1.0000000  0.0000000 )
                  ( -1.0000000  0.0000000  0.0000000 )
                  (  0.0000000  0.0000000  1.0000000 )


      isym = 14     inv. 180 deg rotation - cart. axis [1,-1,0]  

 cryst.   s(14) = (     1          0          0      )
                  (     0          0          1      )
                  (     0          1          0      )

 cart.    s(14) = (  0.0000000  1.0000000  0.0000000 )
                  (  1.0000000  0.0000000  0.0000000 )
                  (  0.0000000  0.0000000  1.0000000 )


      isym = 15     inv.  90 deg rotation - cart. axis [0,0,-1]  

 cryst.   s(15) = (     0         -1          1      )
                  (     1         -1          0      )
                  (     0         -1          0      )

 cart.    s(15) = (  0.0000000 -1.0000000  0.0000000 )
                  (  1.0000000  0.0000000  0.0000000 )
                  (  0.0000000  0.0000000 -1.0000000 )


      isym = 16     inv.  90 deg rotation - cart. axis [0,0,1]   

 cryst.   s(16) = (     0          1         -1      )
                  (     0          0         -1      )
                  (     1          0         -1      )

 cart.    s(16) = (  0.0000000  1.0000000  0.0000000 )
                  ( -1.0000000  0.0000000  0.0000000 )
                  (  0.0000000  0.0000000 -1.0000000 )


      isym = 17     inv. 180 deg rotation - cart. axis [1,0,1]   

 cryst.   s(17) = (     1         -1          0      )
                  (     0         -1          0      )
                  (     0         -1          1      )

 cart.    s(17) = (  0.0000000  0.0000000 -1.0000000 )
                  (  0.0000000  1.0000000  0.0000000 )
                  ( -1.0000000  0.0000000  0.0000000 )


      isym = 18     inv. 180 deg rotation - cart. axis [-1,0,1]  

 cryst.   s(18) = (     0          0          1      )
                  (     0          1          0      )
                  (     1          0          0      )

 cart.    s(18) = (  0.0000000  0.0000000  1.0000000 )
                  (  0.0000000  1.0000000  0.0000000 )
                  (  1.0000000  0.0000000  0.0000000 )


      isym = 19     inv.  90 deg rotation - cart. axis [0,1,0]   

 cryst.   s(19) = (    -1          1          0      )
                  (    -1          0          1      )
                  (    -1          0          0      )

 cart.    s(19) = (  0.0000000  0.0000000 -1.0000000 )
                  (  0.0000000 -1.0000000  0.0000000 )
                  (  1.0000000  0.0000000  0.0000000 )


      isym = 20     inv.  90 deg rotation - cart. axis [0,-1,0]  

 cryst.   s(20) = (     0          0         -1      )
                  (     1          0         -1      )
                  (     0          1         -1      )

 cart.    s(20) = (  0.0000000  0.0000000  1.0000000 )
                  (  0.0000000 -1.0000000  0.0000000 )
                  ( -1.0000000  0.0000000  0.0000000 )


      isym = 21     inv. 180 deg rotation - cart. axis [0,1,1]   

 cryst.   s(21) = (     1          0         -1      )
                  (     0          1         -1      )
                  (     0          0         -1      )

 cart.    s(21) = (  1.0000000  0.0000000  0.0000000 )
                  (  0.0000000  0.0000000 -1.0000000 )
                  (  0.0000000 -1.0000000  0.0000000 )


      isym = 22     inv. 180 deg rotation - cart. axis [0,1,-1]  

 cryst.   s(22) = (     0          1          0      )
                  (     1          0          0      )
                  (     0          0          1      )

 cart.    s(22) = (  1.0000000  0.0000000  0.0000000 )
                  (  0.0000000  0.0000000  1.0000000 )
                  (  0.0000000  1.0000000  0.0000000 )


      isym = 23     inv.  90 deg rotation - cart. axis [-1,0,0]  

 cryst.   s(23) = (    -1          0          1      )
                  (    -1          0          0      )
                  (    -1          1          0      )

 cart.    s(23) = ( -1.0000000  0.0000000  0.0000000 )
                  (  0.0000000  0.0000000 -1.0000000 )
                  (  0.0000000  1.0000000  0.0000000 )


      isym = 24     inv.  90 deg rotation - cart. axis [1,0,0]   

 cryst.   s(24) = (     0         -1          0      )
                  (     0         -1          1      )
                  (     1         -1          0      )

 cart.    s(24) = ( -1.0000000  0.0000000  0.0000000 )
                  (  0.0000000  0.0000000  1.0000000 )
                  (  0.0000000 -1.0000000  0.0000000 )


   Cartesian axes

     site n.     atom                  positions (alat units)
         1           As  tau(   1) = (   0.2500000   0.2500000   0.2500000  )
         2           Al  tau(   2) = (   0.0000000   0.0000000   0.0000000  )

   Crystallographic axes

     site n.     atom                  positions (cryst. coord.)
         1           As  tau(   1) = (  0.2500000  0.2500000  0.2500000  )
         2           Al  tau(   2) = (  0.0000000  0.0000000  0.0000000  )

     number of k points=    20  Marzari-Vanderbilt smearing, width (Ry)=  0.0050
                       cart. coord. in units 2pi/alat
        k(    1) = (   0.0000000   0.0000000   0.0000000), wk =   0.0029155
        k(    2) = (  -0.1428571   0.1428571   0.1428571), wk =   0.0233236
        k(    3) = (  -0.2857143   0.2857143   0.2857143), wk =   0.0233236
        k(    4) = (  -0.4285714   0.4285714   0.4285714), wk =   0.0233236
        k(    5) = (   0.0000000   0.0000000   0.2857143), wk =   0.0174927
        k(    6) = (  -0.1428571   0.1428571   0.4285714), wk =   0.0699708
        k(    7) = (  -0.2857143   0.2857143   0.5714286), wk =   0.0699708
        k(    8) = (   0.5714286  -0.5714286  -0.2857143), wk =   0.0699708
        k(    9) = (   0.4285714  -0.4285714  -0.1428571), wk =   0.0699708
        k(   10) = (   0.2857143  -0.2857143  -0.0000000), wk =   0.0349854
        k(   11) = (   0.0000000   0.0000000   0.5714286), wk =   0.0174927
        k(   12) = (  -0.1428571   0.1428571   0.7142857), wk =   0.0699708
        k(   13) = (   0.7142857  -0.7142857  -0.1428571), wk =   0.0699708
        k(   14) = (   0.5714286  -0.5714286   0.0000000), wk =   0.0349854
        k(   15) = (   0.0000000   0.0000000   0.8571429), wk =   0.0174927
        k(   16) = (   0.8571429  -0.8571429  -0.0000000), wk =   0.0349854
        k(   17) = (   0.0000000   0.2857143   0.5714286), wk =   0.0699708
        k(   18) = (   0.8571429  -0.5714286  -0.2857143), wk =   0.1399417
        k(   19) = (   1.0000000  -0.7142857  -0.1428571), wk =   0.0699708
        k(   20) = (   0.8571429  -0.5714286   0.0000000), wk =   0.0699708

                       cryst. coord.
        k(    1) = (   0.0000000   0.0000000   0.0000000), wk =   0.0029155
        k(    2) = (   0.0000000   0.0000000   0.1428571), wk =   0.0233236
        k(    3) = (   0.0000000   0.0000000   0.2857143), wk =   0.0233236
        k(    4) = (   0.0000000   0.0000000   0.4285714), wk =   0.0233236
        k(    5) = (   0.0000000   0.1428571   0.1428571), wk =   0.0174927
        k(    6) = (   0.0000000   0.1428571   0.2857143), wk =   0.0699708
        k(    7) = (   0.0000000   0.1428571   0.4285714), wk =   0.0699708
        k(    8) = (   0.0000000   0.1428571  -0.4285714), wk =   0.0699708
        k(    9) = (   0.0000000   0.1428571  -0.2857143), wk =   0.0699708
        k(   10) = (   0.0000000   0.1428571  -0.1428571), wk =   0.0349854
        k(   11) = (   0.0000000   0.2857143   0.2857143), wk =   0.0174927
        k(   12) = (   0.0000000   0.2857143   0.4285714), wk =   0.0699708
        k(   13) = (   0.0000000   0.2857143  -0.4285714), wk =   0.0699708
        k(   14) = (   0.0000000   0.2857143  -0.2857143), wk =   0.0349854
        k(   15) = (   0.0000000   0.4285714   0.4285714), wk =   0.0174927
        k(   16) = (   0.0000000   0.4285714  -0.4285714), wk =   0.0349854
        k(   17) = (   0.1428571   0.2857143   0.4285714), wk =   0.0699708
        k(   18) = (   0.1428571   0.2857143  -0.4285714), wk =   0.1399417
        k(   19) = (   0.1428571   0.4285714  -0.4285714), wk =   0.0699708
        k(   20) = (   0.1428571   0.4285714  -0.2857143), wk =   0.0699708

     Dense  grid:    14553 G-vectors     FFT dimensions: (  36,  36,  36)

     Dynamical RAM for                 wfc:       0.11 MB

     Dynamical RAM for     wfc (w. buffer):       4.57 MB

     Dynamical RAM for           str. fact:       0.22 MB

     Dynamical RAM for           local pot:       0.00 MB

     Dynamical RAM for          nlocal pot:       0.36 MB

     Dynamical RAM for                qrad:       2.27 MB

     Dynamical RAM for          rho,v,vnew:       1.73 MB

     Dynamical RAM for               rhoin:       0.58 MB

     Dynamical RAM for            rho*nmix:       3.55 MB

     Dynamical RAM for           G-vectors:       0.47 MB

     Dynamical RAM for          h,s,v(r/c):       0.05 MB

     Dynamical RAM for          <psi|beta>:       0.00 MB

     Dynamical RAM for                 psi:       0.45 MB

     Dynamical RAM for                hpsi:       0.45 MB

     Dynamical RAM for                spsi:       0.45 MB

     Dynamical RAM for      wfcinit/wfcrot:       0.22 MB

     Dynamical RAM for           addusdens:      20.88 MB

     Dynamical RAM for          addusforce:      20.88 MB

     Dynamical RAM for         addusstress:      22.49 MB

     Estimated static dynamical RAM per process >      11.61 MB

     Estimated max dynamical RAM per process >      37.65 MB

     Estimated total dynamical RAM >      75.30 MB
     Generating pointlists ...
     new r_m :   0.1786 (alat units)  1.9107 (a.u.) for type    1
     new r_m :   0.1786 (alat units)  1.9107 (a.u.) for type    2

     Initial potential from superposition of free atoms

     starting charge       7.9975, renormalised to       8.0000
     Starting wfcs are    8 randomized atomic wfcs
     Checking if some PAW data can be deallocated... 
       PAW data deallocated on    1 nodes for type:  1
       PAW data deallocated on    1 nodes for type:  2

     total cpu time spent up to now is        2.4 secs

     per-process dynamical memory:    21.8 Mb

     Self-consistent Calculation

     iteration #  1     ecut=    50.00 Ry     beta= 0.30
     Davidson diagonalization with overlap

---- Real-time Memory Report at c_bands before calling an iterative solver
            63 MiB given to the printing process from OS
            21 MiB allocation reported by mallinfo(arena+hblkhd)
           135 MiB available memory on the node where the printing process lives
------------------
     ethr =  1.00E-02,  avg # of iterations =  3.5

     total cpu time spent up to now is        4.1 secs

     total energy              =    -215.24500935 Ry
     estimated scf accuracy    <       0.14658875 Ry

     total magnetization       =     0.55 Bohr mag/cell
     absolute magnetization    =     0.57 Bohr mag/cell

     iteration #  2     ecut=    50.00 Ry     beta= 0.30
     Davidson diagonalization with overlap

---- Real-time Memory Report at c_bands before calling an iterative solver
            73 MiB given to the printing process from OS
            44 MiB allocation reported by mallinfo(arena+hblkhd)
           103 MiB available memory on the node where the printing process lives
------------------
     ethr =  1.83E-03,  avg # of iterations =  1.0

     total cpu time spent up to now is        5.5 secs

     total energy              =    -215.53799980 Ry
     estimated scf accuracy    <       0.07068555 Ry

     total magnetization       =     0.18 Bohr mag/cell
     absolute magnetization    =     0.23 Bohr mag/cell

     iteration #  3     ecut=    50.00 Ry     beta= 0.30
     Davidson diagonalization with overlap

---- Real-time Memory Report at c_bands before calling an iterative solver
            73 MiB given to the printing process from OS
            44 MiB allocation reported by mallinfo(arena+hblkhd)
           119 MiB available memory on the node where the printing process lives
------------------
     ethr =  8.84E-04,  avg # of iterations =  1.7

     total cpu time spent up to now is        7.2 secs

     total energy              =    -215.56039129 Ry
     estimated scf accuracy    <       0.00463119 Ry

     total magnetization       =    -0.00 Bohr mag/cell
     absolute magnetization    =     0.05 Bohr mag/cell

     iteration #  4     ecut=    50.00 Ry     beta= 0.30
     Davidson diagonalization with overlap

---- Real-time Memory Report at c_bands before calling an iterative solver
            73 MiB given to the printing process from OS
            45 MiB allocation reported by mallinfo(arena+hblkhd)
           105 MiB available memory on the node where the printing process lives
------------------
     ethr =  5.79E-05,  avg # of iterations =  2.5

     total cpu time spent up to now is        8.7 secs

     total energy              =    -215.56461473 Ry
     estimated scf accuracy    <       0.00104908 Ry

     total magnetization       =    -0.00 Bohr mag/cell
     absolute magnetization    =     0.03 Bohr mag/cell

     iteration #  5     ecut=    50.00 Ry     beta= 0.30
     Davidson diagonalization with overlap

---- Real-time Memory Report at c_bands before calling an iterative solver
            74 MiB given to the printing process from OS
            45 MiB allocation reported by mallinfo(arena+hblkhd)
           131 MiB available memory on the node where the printing process lives
------------------
     ethr =  1.31E-05,  avg # of iterations =  1.9

     total cpu time spent up to now is       10.2 secs

     total energy              =    -215.56473822 Ry
     estimated scf accuracy    <       0.00006682 Ry

     total magnetization       =    -0.00 Bohr mag/cell
     absolute magnetization    =     0.02 Bohr mag/cell

     iteration #  6     ecut=    50.00 Ry     beta= 0.30
     Davidson diagonalization with overlap

---- Real-time Memory Report at c_bands before calling an iterative solver
            74 MiB given to the printing process from OS
            46 MiB allocation reported by mallinfo(arena+hblkhd)
           130 MiB available memory on the node where the printing process lives
------------------
     ethr =  8.35E-07,  avg # of iterations =  2.4

     total cpu time spent up to now is       11.7 secs

     total energy              =    -215.56476996 Ry
     estimated scf accuracy    <       0.00000926 Ry

     total magnetization       =    -0.00 Bohr mag/cell
     absolute magnetization    =     0.01 Bohr mag/cell

     iteration #  7     ecut=    50.00 Ry     beta= 0.30
     Davidson diagonalization with overlap

---- Real-time Memory Report at c_bands before calling an iterative solver
            75 MiB given to the printing process from OS
            46 MiB allocation reported by mallinfo(arena+hblkhd)
           129 MiB available memory on the node where the printing process lives
------------------
     ethr =  1.16E-07,  avg # of iterations =  2.0

     total cpu time spent up to now is       13.2 secs

     total energy              =    -215.56477491 Ry
     estimated scf accuracy    <       0.00000118 Ry

     total magnetization       =     0.00 Bohr mag/cell
     absolute magnetization    =     0.00 Bohr mag/cell

     iteration #  8     ecut=    50.00 Ry     beta= 0.30
     Davidson diagonalization with overlap

---- Real-time Memory Report at c_bands before calling an iterative solver
            75 MiB given to the printing process from OS
            47 MiB allocation reported by mallinfo(arena+hblkhd)
           128 MiB available memory on the node where the printing process lives
------------------
     ethr =  1.48E-08,  avg # of iterations =  2.3

     total cpu time spent up to now is       14.7 secs

     total energy              =    -215.56477648 Ry
     estimated scf accuracy    <       0.00000028 Ry

     total magnetization       =     0.00 Bohr mag/cell
     absolute magnetization    =     0.00 Bohr mag/cell

     iteration #  9     ecut=    50.00 Ry     beta= 0.30
     Davidson diagonalization with overlap

---- Real-time Memory Report at c_bands before calling an iterative solver
            76 MiB given to the printing process from OS
            47 MiB allocation reported by mallinfo(arena+hblkhd)
           127 MiB available memory on the node where the printing process lives
------------------
     ethr =  3.45E-09,  avg # of iterations =  1.0

     total cpu time spent up to now is       16.0 secs

     total energy              =    -215.56477656 Ry
     estimated scf accuracy    <       0.00000005 Ry

     total magnetization       =     0.00 Bohr mag/cell
     absolute magnetization    =     0.00 Bohr mag/cell

     iteration # 10     ecut=    50.00 Ry     beta= 0.30
     Davidson diagonalization with overlap

---- Real-time Memory Report at c_bands before calling an iterative solver
            76 MiB given to the printing process from OS
            48 MiB allocation reported by mallinfo(arena+hblkhd)
           126 MiB available memory on the node where the printing process lives
------------------
     ethr =  5.78E-10,  avg # of iterations =  2.3

     Magnetic moment per site  (integrated on atomic sphere of radius R)
     atom   1 (R=0.179)  charge=  2.7987  magn=  0.0000
     atom   2 (R=0.179)  charge=  1.0729  magn= -0.0000

     total cpu time spent up to now is       17.6 secs

     End of self-consistent calculation

 ------ SPIN UP ------------


          k = 0.0000 0.0000 0.0000 (  1837 PWs)   bands (ev):

    -6.9865   4.8775   4.8775   4.8775   6.9449   9.1663   9.1663   9.1663

     occupation numbers 
     1.0000   1.0000   1.0000   1.0000   0.0000   0.0000   0.0000   0.0000

          k =-0.1429 0.1429 0.1429 (  1835 PWs)   bands (ev):

    -6.7879   3.1649   4.6742   4.6742   7.7147   9.5196   9.5196   9.7774

     occupation numbers 
     1.0000   1.0000   1.0000   1.0000   0.0000   0.0000   0.0000   0.0000

          k =-0.2857 0.2857 0.2857 (  1841 PWs)   bands (ev):

    -6.2540   0.9882   4.3143   4.3143   7.3843   9.7931   9.7931  11.8745

     occupation numbers 
     1.0000   1.0000   1.0000   1.0000   0.0000   0.0000   0.0000   0.0000

          k =-0.4286 0.4286 0.4286 (  1838 PWs)   bands (ev):

    -5.6726  -0.4749   4.0856   4.0856   7.0614   9.5942   9.5942  12.6913

     occupation numbers 
     1.0000   1.0000   1.0000   1.0000   0.0000   0.0000   0.0000   0.0000

          k = 0.0000 0.0000 0.2857 (  1836 PWs)   bands (ev):

    -6.7210   3.2317   4.2580   4.2580   8.3694   8.5916  10.1984  10.1984

     occupation numbers 
     1.0000   1.0000   1.0000   1.0000   0.0000   0.0000   0.0000   0.0000

          k =-0.1429 0.1429 0.4286 (  1832 PWs)   bands (ev):

    -6.2939   1.5645   3.7936   3.8365   8.1260   9.2009  10.4747  10.8372

     occupation numbers 
     1.0000   1.0000   1.0000   1.0000   0.0000   0.0000   0.0000   0.0000

          k =-0.2857 0.2857 0.5714 (  1824 PWs)   bands (ev):

    -5.6962  -0.0205   3.2168   3.6752   7.8894   9.5011  10.5956  11.4381

     occupation numbers 
     1.0000   1.0000   1.0000   1.0000   0.0000   0.0000   0.0000   0.0000

          k = 0.5714-0.5714-0.2857 (  1832 PWs)   bands (ev):

    -5.4560  -0.5186   2.8636   3.8298   7.9083   9.4594  10.2312  13.1396

     occupation numbers 
     1.0000   1.0000   1.0000   1.0000   0.0000   0.0000   0.0000   0.0000

          k = 0.4286-0.4286-0.1429 (  1832 PWs)   bands (ev):

    -5.8963   0.4442   2.9093   4.2302   8.2284   9.7472  10.0791  11.7383

     occupation numbers 
     1.0000   1.0000   1.0000   1.0000   0.0000   0.0000   0.0000   0.0000

          k = 0.2857-0.2857-0.0000 (  1849 PWs)   bands (ev):

    -6.4742   2.0465   3.5564   4.6478   8.4538   9.4501   9.6898  10.7501

     occupation numbers 
     1.0000   1.0000   1.0000   1.0000   0.0000   0.0000   0.0000   0.0000

          k = 0.0000 0.0000 0.5714 (  1824 PWs)   bands (ev):

    -5.9975   1.1837   3.3258   3.3258   7.1838   8.3101  12.3060  12.3060

     occupation numbers 
     1.0000   1.0000   1.0000   1.0000   0.0000   0.0000   0.0000   0.0000

          k =-0.1429 0.1429 0.7143 (  1823 PWs)   bands (ev):

    -5.4945   0.2006   2.5363   3.1014   7.1671   8.5432  12.0929  12.6422

     occupation numbers 
     1.0000   1.0000   1.0000   1.0000   0.0000   0.0000   0.0000   0.0000

          k = 0.7143-0.7143-0.1429 (  1821 PWs)   bands (ev):

    -5.1663  -0.2802   1.6653   3.2437   7.3571  10.5124  11.8508  12.1295

     occupation numbers 
     1.0000   1.0000   1.0000   1.0000   0.0000   0.0000   0.0000   0.0000

          k = 0.5714-0.5714 0.0000 (  1820 PWs)   bands (ev):

    -5.3949   0.0327   1.6233   3.7006   7.9352  11.1834  11.3452  11.7084

     occupation numbers 
     1.0000   1.0000   1.0000   1.0000   0.0000   0.0000   0.0000   0.0000

          k = 0.0000 0.0000 0.8571 (  1816 PWs)   bands (ev):

    -5.1740  -0.3103   2.7788   2.7788   6.4117   7.2840  14.6147  14.6147

     occupation numbers 
     1.0000   1.0000   1.0000   1.0000   0.0000   0.0000   0.0000   0.0000

          k = 0.8571-0.8571-0.0000 (  1804 PWs)   bands (ev):

    -5.0112  -0.4531   2.0439   2.8320   6.7219   8.1209  14.2671  14.3468

     occupation numbers 
     1.0000   1.0000   1.0000   1.0000   0.0000   0.0000   0.0000   0.0000

          k = 0.0000 0.2857 0.5714 (  1838 PWs)   bands (ev):

    -5.8191   0.6848   2.5698   3.6282   8.4802   9.2815  10.0680  12.0025

     occupation numbers 
     1.0000   1.0000   1.0000   1.0000   0.0000   0.0000   0.0000   0.0000

          k = 0.8571-0.5714-0.2857 (  1829 PWs)   bands (ev):

    -5.3249  -0.1722   2.0003   3.2039   8.6620   9.3281  11.1047  12.3408

     occupation numbers 
     1.0000   1.0000   1.0000   1.0000   0.0000   0.0000   0.0000   0.0000

          k = 1.0000-0.7143-0.1429 (  1821 PWs)   bands (ev):

    -5.1212  -0.2254   2.0890   2.4858   7.7511   8.6617  11.7527  14.1807

     occupation numbers 
     1.0000   1.0000   1.0000   1.0000   0.0000   0.0000   0.0000   0.0000

          k = 0.8571-0.5714 0.0000 (  1823 PWs)   bands (ev):

    -5.0380  -0.2142   1.4959   2.5628   8.3887  10.4261  11.2327  11.7171

     occupation numbers 
     1.0000   1.0000   1.0000   1.0000   0.0000   0.0000   0.0000   0.0000

 ------ SPIN DOWN ----------


          k = 0.0000 0.0000 0.0000 (  1837 PWs)   bands (ev):

    -6.9865   4.8776   4.8776   4.8776   6.9447   9.1661   9.1661   9.1661

     occupation numbers 
     1.0000   1.0000   1.0000   1.0000   0.0000   0.0000   0.0000   0.0000

          k =-0.1429 0.1429 0.1429 (  1835 PWs)   bands (ev):

    -6.7878   3.1649   4.6742   4.6742   7.7145   9.5194   9.5194   9.7772

     occupation numbers 
     1.0000   1.0000   1.0000   1.0000   0.0000   0.0000   0.0000   0.0000

          k =-0.2857 0.2857 0.2857 (  1841 PWs)   bands (ev):

    -6.2540   0.9881   4.3143   4.3143   7.3841   9.7928   9.7928  11.8743

     occupation numbers 
     1.0000   1.0000   1.0000   1.0000   0.0000   0.0000   0.0000   0.0000

          k =-0.4286 0.4286 0.4286 (  1838 PWs)   bands (ev):

    -5.6725  -0.4751   4.0857   4.0857   7.0613   9.5940   9.5940  12.6911

     occupation numbers 
     1.0000   1.0000   1.0000   1.0000   0.0000   0.0000   0.0000   0.0000

          k = 0.0000 0.0000 0.2857 (  1836 PWs)   bands (ev):

    -6.7209   3.2317   4.2580   4.2580   8.3692   8.5915  10.1981  10.1981

     occupation numbers 
     1.0000   1.0000   1.0000   1.0000   0.0000   0.0000   0.0000   0.0000

          k =-0.1429 0.1429 0.4286 (  1832 PWs)   bands (ev):

    -6.2938   1.5644   3.7936   3.8365   8.1258   9.2008  10.4746  10.8370

     occupation numbers 
     1.0000   1.0000   1.0000   1.0000   0.0000   0.0000   0.0000   0.0000

          k =-0.2857 0.2857 0.5714 (  1824 PWs)   bands (ev):

    -5.6961  -0.0206   3.2168   3.6752   7.8893   9.5009  10.5955  11.4379

     occupation numbers 
     1.0000   1.0000   1.0000   1.0000   0.0000   0.0000   0.0000   0.0000

          k = 0.5714-0.5714-0.2857 (  1832 PWs)   bands (ev):

    -5.4559  -0.5187   2.8635   3.8298   7.9081   9.4593  10.2310  13.1395

     occupation numbers 
     1.0000   1.0000   1.0000   1.0000   0.0000   0.0000   0.0000   0.0000

          k = 0.4286-0.4286-0.1429 (  1832 PWs)   bands (ev):

    -5.8962   0.4441   2.9093   4.2302   8.2282   9.7470  10.0788  11.7382

     occupation numbers 
     1.0000   1.0000   1.0000   1.0000   0.0000   0.0000   0.0000   0.0000

          k = 0.2857-0.2857-0.0000 (  1849 PWs)   bands (ev):

    -6.4742   2.0465   3.5563   4.6479   8.4536   9.4499   9.6896  10.7500

     occupation numbers 
     1.0000   1.0000   1.0000   1.0000   0.0000   0.0000   0.0000   0.0000

          k = 0.0000 0.0000 0.5714 (  1824 PWs)   bands (ev):

    -5.9974   1.1836   3.3258   3.3258   7.1835   8.3100  12.3058  12.3058

     occupation numbers 
     1.0000   1.0000   1.0000   1.0000   0.0000   0.0000   0.0000   0.0000

          k =-0.1429 0.1429 0.7143 (  1823 PWs)   bands (ev):

    -5.4944   0.2005   2.5363   3.1014   7.1669   8.5432  12.0928  12.6421

     occupation numbers 
     1.0000   1.0000   1.0000   1.0000   0.0000   0.0000   0.0000   0.0000

          k = 0.7143-0.7143-0.1429 (  1821 PWs)   bands (ev):

    -5.1662  -0.2804   1.6652   3.2437   7.3569  10.5123  11.8507  12.1293

     occupation numbers 
     1.0000   1.0000   1.0000   1.0000   0.0000   0.0000   0.0000   0.0000

          k = 0.5714-0.5714 0.0000 (  1820 PWs)   bands (ev):

    -5.3948   0.0325   1.6232   3.7006   7.9350  11.1832  11.3450  11.7085

     occupation numbers 
     1.0000   1.0000   1.0000   1.0000   0.0000   0.0000   0.0000   0.0000

          k = 0.0000 0.0000 0.8571 (  1816 PWs)   bands (ev):

    -5.1738  -0.3104   2.7787   2.7787   6.4114   7.2840  14.6145  14.6145

     occupation numbers 
     1.0000   1.0000   1.0000   1.0000   0.0000   0.0000   0.0000   0.0000

          k = 0.8571-0.8571-0.0000 (  1804 PWs)   bands (ev):

    -5.0110  -0.4533   2.0439   2.8320   6.7216   8.1209  14.2669  14.3465

     occupation numbers 
     1.0000   1.0000   1.0000   1.0000   0.0000   0.0000   0.0000   0.0000

          k = 0.0000 0.2857 0.5714 (  1838 PWs)   bands (ev):

    -5.8190   0.6847   2.5698   3.6282   8.4800   9.2814  10.0679  12.0023

     occupation numbers 
     1.0000   1.0000   1.0000   1.0000   0.0000   0.0000   0.0000   0.0000

          k = 0.8571-0.5714-0.2857 (  1829 PWs)   bands (ev):

    -5.3248  -0.1723   2.0003   3.2038   8.6618   9.3280  11.1046  12.3406

     occupation numbers 
     1.0000   1.0000   1.0000   1.0000   0.0000   0.0000   0.0000   0.0000

          k = 1.0000-0.7143-0.1429 (  1821 PWs)   bands (ev):

    -5.1211  -0.2256   2.0890   2.4858   7.7508   8.6617  11.7525  14.1806

     occupation numbers 
     1.0000   1.0000   1.0000   1.0000   0.0000   0.0000   0.0000   0.0000

          k = 0.8571-0.5714 0.0000 (  1823 PWs)   bands (ev):

    -5.0379  -0.2144   1.4959   2.5627   8.3886  10.4260  11.2325  11.7170

     occupation numbers 
     1.0000   1.0000   1.0000   1.0000   0.0000   0.0000   0.0000   0.0000

     the Fermi energy is     5.2492 ev

!    total energy              =    -215.56477658 Ry

     total all-electron energy =     -5007.674916 Ry
     estimated scf accuracy    <          2.3E-09 Ry
     smearing contrib. (-TS)   =       0.00000000 Ry
     internal energy E=F+TS    =    -215.56477658 Ry

     The total energy is F=E-TS. E is the sum of the following terms:
     one-electron contribution =       4.53556917 Ry
     hartree contribution      =       1.61384585 Ry
     xc contribution           =     -14.11981754 Ry
     ewald contribution        =     -16.82128696 Ry
     one-center paw contrib.   =    -190.77308708 Ry
      -> PAW hartree energy AE =       8.24014369 Ry
      -> PAW hartree energy PS =      -8.22054670 Ry
      -> PAW xc energy AE      =    -167.25665012 Ry
      -> PAW xc energy PS      =      11.14501594 Ry
      -> total E_H with PAW    =       1.63344284 Ry
      -> total E_XC with PAW   =    -170.23145173 Ry

     total magnetization       =    -0.00 Bohr mag/cell
     absolute magnetization    =     0.00 Bohr mag/cell

     convergence has been achieved in  10 iterations

     Forces acting on atoms (cartesian axes, Ry/au):

     atom    1 type  1   force =     0.00000000    0.00000000    0.00000000
     atom    2 type  2   force =     0.00000000    0.00000000    0.00000000
     The non-local contrib.  to forces
     atom    1 type  1   force =     0.00000000    0.00000000    0.00000000
     atom    2 type  2   force =     0.00000000    0.00000000    0.00000000
     The ionic contribution  to forces
     atom    1 type  1   force =     0.00000000   -0.00000000   -0.00000000
     atom    2 type  2   force =     0.00000000    0.00000000    0.00000000
     The local contribution  to forces
     atom    1 type  1   force =     0.00000000   -0.00000000    0.00000000
     atom    2 type  2   force =     0.00000000    0.00000000    0.00000000
     The core correction contribution to forces
     atom    1 type  1   force =    -0.00000000   -0.00000000   -0.00000000
     atom    2 type  2   force =     0.00000000   -0.00000000   -0.00000000
     The Hubbard contrib.    to forces
     atom    1 type  1   force =     0.00000000    0.00000000    0.00000000
     atom    2 type  2   force =     0.00000000    0.00000000    0.00000000
     The SCF correction term to forces
     atom    1 type  1   force =    -0.00000000    0.00000000    0.00000000
     atom    2 type  2   force =     0.00000000   -0.00000000   -0.00000000

     Total force =     0.000000     Total SCF correction =     0.000000


     Computing stress (Cartesian axis) and pressure

          total   stress  (Ry/bohr**3)                   (kbar)     P=       27.68
   0.00018820   0.00000000  -0.00000000           27.68        0.00       -0.00
  -0.00000000   0.00018820   0.00000000           -0.00       27.68        0.00
  -0.00000000   0.00000000   0.00018820           -0.00        0.00       27.68

     kinetic stress (kbar)   2087.35     -0.00      0.00
                               -0.00   2087.35      0.00
                                0.00      0.00   2087.35

     local   stress (kbar)    521.21     -0.00     -0.00
                               -0.00    521.21     -0.00
                               -0.00     -0.00    521.21

     nonloc. stress (kbar)    919.19      0.00     -0.00
                                0.00    919.19     -0.00
                               -0.00     -0.00    919.19

     hartree stress (kbar)    258.58      0.00      0.00
                                0.00    258.58      0.00
                                0.00      0.00    258.58

     exc-cor stress (kbar)   3411.96     -0.00     -0.00
                               -0.00   3411.96      0.00
                               -0.00      0.00   3411.96

     corecor stress (kbar)  -4475.38     -0.00     -0.00
                               -0.00  -4475.38     -0.00
                               -0.00     -0.00  -4475.38

     ewald   stress (kbar)  -2695.23      0.00      0.00
                                0.00  -2695.23      0.00
                                0.00      0.00  -2695.23

     hubbard stress (kbar)      0.00      0.00      0.00
                                0.00      0.00      0.00
                                0.00      0.00      0.00

     DFT-D   stress (kbar)      0.00      0.00      0.00
                                0.00      0.00      0.00
                                0.00      0.00      0.00

     XDM     stress (kbar)      0.00      0.00      0.00
                                0.00      0.00      0.00
                                0.00      0.00      0.00

     dft-nl  stress (kbar)      0.00      0.00      0.00
                                0.00      0.00      0.00
                                0.00      0.00      0.00

     TS-vdW  stress (kbar)      0.00      0.00      0.00
                                0.00      0.00      0.00
                                0.00      0.00      0.00


                                0.00      0.00      0.00
                                0.00      0.00      0.00


                                0.00      0.00      0.00


     Writing all to output data dir ./outputs/alas.save/

     init_run     :      1.25s CPU      1.92s WALL (       1 calls)
     electrons    :     13.06s CPU     15.27s WALL (       1 calls)
     forces       :      0.16s CPU      0.16s WALL (       1 calls)
     stress       :      0.54s CPU      0.64s WALL (       1 calls)

     Called by init_run:
     wfcinit      :      0.23s CPU      0.33s WALL (       1 calls)
     wfcinit:atom :      0.00s CPU      0.01s WALL (      40 calls)
     wfcinit:wfcr :      0.20s CPU      0.29s WALL (      40 calls)
     potinit      :      0.42s CPU      0.65s WALL (       1 calls)
     hinit0       :      0.54s CPU      0.78s WALL (       1 calls)

     Called by electrons:
     c_bands      :      6.96s CPU      8.02s WALL (      10 calls)
     sum_band     :      2.20s CPU      2.69s WALL (      10 calls)
     v_of_rho     :      0.34s CPU      0.40s WALL (      11 calls)
     v_h          :      0.01s CPU      0.01s WALL (      11 calls)
     v_xc         :      0.39s CPU      0.46s WALL (      13 calls)
     newd         :      0.39s CPU      0.49s WALL (      11 calls)
     PAW_pot      :      3.56s CPU      4.10s WALL (      11 calls)
     mix_rho      :      0.04s CPU      0.07s WALL (      10 calls)

     Called by c_bands:
     init_us_2    :      0.29s CPU      0.34s WALL (     920 calls)
     init_us_2:cp :      0.29s CPU      0.34s WALL (     920 calls)
     cegterg      :      6.52s CPU      7.49s WALL (     400 calls)

     Called by sum_band:
     sum_band:wei :      0.00s CPU      0.01s WALL (      10 calls)
     sum_band:loo :      1.51s CPU      1.88s WALL (      10 calls)
     sum_band:buf :      0.01s CPU      0.01s WALL (     400 calls)
     sum_band:ini :      0.13s CPU      0.15s WALL (     400 calls)
     sum_band:cal :      0.11s CPU      0.17s WALL (     400 calls)
     sum_band:bec :      0.01s CPU      0.01s WALL (     400 calls)
     addusdens    :      0.66s CPU      0.76s WALL (      10 calls)
     addusd:skk   :      0.00s CPU      0.00s WALL (      20 calls)
     addusd:dgemm :      0.14s CPU      0.17s WALL (      40 calls)
     addusd:qvan2 :      0.50s CPU      0.55s WALL (      40 calls)

     Called by *egterg:
     cdiaghg      :      0.15s CPU      0.19s WALL (    1223 calls)
     cegterg:over :      0.21s CPU      0.23s WALL (     823 calls)
     cegterg:upda :      0.14s CPU      0.15s WALL (     823 calls)
     cegterg:last :      0.07s CPU      0.07s WALL (     400 calls)
     h_psi        :      5.73s CPU      6.67s WALL (    1263 calls)
     s_psi        :      0.20s CPU      0.22s WALL (    1263 calls)
     g_psi        :      0.06s CPU      0.07s WALL (     823 calls)

     Called by h_psi:
     h_psi:calbec :      0.26s CPU      0.31s WALL (    1263 calls)
     vloc_psi     :      5.22s CPU      6.09s WALL (    1263 calls)
     add_vuspsi   :      0.21s CPU      0.23s WALL (    1263 calls)

     General routines
     calbec       :      0.41s CPU      0.52s WALL (    1863 calls)
     fft          :      0.43s CPU      0.54s WALL (     273 calls)
     ffts         :      0.01s CPU      0.01s WALL (      20 calls)
     fftw         :      5.60s CPU      6.66s WALL (   19242 calls)

     Parallel routines

     PAW routines
     PAW_pot      :      3.56s CPU      4.10s WALL (      11 calls)
     PAW_symme    :      0.01s CPU      0.01s WALL (      21 calls)

     PWSCF        :     15.26s CPU     18.54s WALL


   This run was terminated on:   4:45:21   3Jan2025            

=------------------------------------------------------------------------------=
   JOB DONE.
=------------------------------------------------------------------------------=
