
     Program PWSCF v.7.0 starts on  3Jan2025 at  6:58:44 

     This program is part of the open-source Quantum ESPRESSO suite
     for quantum simulation of materials; please cite
         "P. Giannozzi et al., J. Phys.:Condens. Matter 21 395502 (2009);
         "P. Giannozzi et al., J. Phys.:Condens. Matter 29 465901 (2017);
         "P. Giannozzi et al., J. Chem. Phys. 152 154105 (2020);
          URL http://www.quantum-espresso.org", 
     in publications or presentations arising from this work. More details at
     http://www.quantum-espresso.org/quote

     Parallel version (MPI & OpenMP), running on       2 processor cores
     Number of MPI processes:                 2
     Threads/MPI process:                     1

     MPI processes distributed on     1 nodes
     R & G space division:  proc/nbgrp/npool/nimage =       2
     187 MiB available memory on the printing compute node when the environment starts

     Reading input from pw.scf.w_soc.in

     Current dimensions of program PWSCF are:
     Max number of different atomic species (ntypx) = 10
     Max number of k-points (npk) =  40000
     Max angular momentum in pseudopotentials (lmaxx) =  4
     Message from routine volume:
     axis vectors are left-handed
     file Al.rel-pbe-n-kjpaw_psl.1.0.0.UPF: wavefunction(s)  3S 3P 3P renormalized

     IMPORTANT: XC functional enforced from input :
     Exchange-correlation= PBE
                           (   1   4   3   4   0   0   0)
     Any further DFT definition will be discarded
     Please, verify this is what you really want

     Message from routine setup:
     using ibrav=0 with symmetry is DISCOURAGED, use correct ibrav instead

     Subspace diagonalization in iterative solution of the eigenvalue problem:
     a serial algorithm will be used


     Parallelization info
     --------------------
     sticks:   dense  smooth     PW     G-vecs:    dense   smooth      PW
     Min         395     395    120                 7276     7276    1221
     Max         398     398    121                 7277     7277    1224
     Sum         793     793    241                14553    14553    2445

     Using Slab Decomposition



     bravais-lattice index     =            0
     lattice parameter (alat)  =      10.6974  a.u.
     unit-cell volume          =     306.0343 (a.u.)^3
     number of atoms/cell      =            2
     number of atomic types    =            2
     number of electrons       =         8.00
     number of Kohn-Sham states=           16
     kinetic-energy cutoff     =      50.0000  Ry
     charge density cutoff     =     200.0000  Ry
     scf convergence threshold =      1.0E-08
     mixing beta               =       0.3000
     number of iterations used =            8  plain     mixing
     Exchange-correlation= PBE
                           (   1   4   3   4   0   0   0)
     Non magnetic calculation with spin-orbit


     celldm(1)=  10.697362  celldm(2)=   0.000000  celldm(3)=   0.000000
     celldm(4)=   0.000000  celldm(5)=   0.000000  celldm(6)=   0.000000

     crystal axes: (cart. coord. in units of alat)
               a(1) = (   0.500000   0.500000   0.000000 )  
               a(2) = (   0.500000   0.000000   0.500000 )  
               a(3) = (   0.000000   0.500000   0.500000 )  

     reciprocal axes: (cart. coord. in units 2 pi/alat)
               b(1) = (  1.000000  1.000000 -1.000000 )  
               b(2) = (  1.000000 -1.000000  1.000000 )  
               b(3) = ( -1.000000  1.000000  1.000000 )  


     PseudoPot. # 1 for As read from file:
     ../Pseudopotentials/As.rel-pbe-n-kjpaw_psl.1.0.0.UPF
     MD5 check sum: 64fce746f52c6128fdf7901f08bfcabb
     Pseudo is Projector augmented-wave + core cor, Zval =  5.0
     Generated using &quot;atomic&quot; code by A. Dal Corso  v.6.3
     Shape of augmentation charge: PSQ
     Using radial grid of 1209 points,  6 beta functions with: 
                l(1) =   0
                l(2) =   0
                l(3) =   1
                l(4) =   1
                l(5) =   1
                l(6) =   1
     Q(r) pseudized with 0 coefficients 


     PseudoPot. # 2 for Al read from file:
     ../Pseudopotentials/Al.rel-pbe-n-kjpaw_psl.1.0.0.UPF
     MD5 check sum: 7249271efcd0df95b4b192763abbeb3c
     Pseudo is Projector augmented-wave + core cor, Zval =  3.0
     Generated using &quot;atomic&quot; code by A. Dal Corso  v.6.3
     Shape of augmentation charge: PSQ
     Using radial grid of 1135 points, 10 beta functions with: 
                l(1) =   0
                l(2) =   0
                l(3) =   1
                l(4) =   1
                l(5) =   1
                l(6) =   1
                l(7) =   2
                l(8) =   2
                l(9) =   2
               l(10) =   2
     Q(r) pseudized with 0 coefficients 


     atomic species   valence    mass     pseudopotential
        As             5.00    74.92100     As( 1.00)
        Al             3.00    26.98100     Al( 1.00)

     24 Sym. Ops. (no inversion) found


                                    s                        frac. trans.

      isym =  1     identity                                     

 cryst.   s( 1) = (     1          0          0      )
                  (     0          1          0      )
                  (     0          0          1      )

 cart.    s( 1) = (  1.0000000  0.0000000  0.0000000 )
                  (  0.0000000  1.0000000  0.0000000 )
                  (  0.0000000  0.0000000  1.0000000 )


      isym =  2     180 deg rotation - cart. axis [0,0,1]        

 cryst.   s( 2) = (    -1          0          0      )
                  (    -1          0          1      )
                  (    -1          1          0      )

 cart.    s( 2) = ( -1.0000000  0.0000000  0.0000000 )
                  (  0.0000000 -1.0000000  0.0000000 )
                  (  0.0000000  0.0000000  1.0000000 )


      isym =  3     180 deg rotation - cart. axis [0,1,0]        

 cryst.   s( 3) = (     0         -1          1      )
                  (     0         -1          0      )
                  (     1         -1          0      )

 cart.    s( 3) = ( -1.0000000  0.0000000  0.0000000 )
                  (  0.0000000  1.0000000  0.0000000 )
                  (  0.0000000  0.0000000 -1.0000000 )


      isym =  4     180 deg rotation - cart. axis [1,0,0]        

 cryst.   s( 4) = (     0          1         -1      )
                  (     1          0         -1      )
                  (     0          0         -1      )

 cart.    s( 4) = (  1.0000000  0.0000000  0.0000000 )
                  (  0.0000000 -1.0000000  0.0000000 )
                  (  0.0000000  0.0000000 -1.0000000 )


      isym =  5     120 deg rotation - cart. axis [-1,-1,-1]     

 cryst.   s( 5) = (     0          1          0      )
                  (     0          0          1      )
                  (     1          0          0      )

 cart.    s( 5) = (  0.0000000  1.0000000  0.0000000 )
                  (  0.0000000  0.0000000  1.0000000 )
                  (  1.0000000  0.0000000  0.0000000 )


      isym =  6     120 deg rotation - cart. axis [-1,1,1]       

 cryst.   s( 6) = (     0         -1          0      )
                  (     1         -1          0      )
                  (     0         -1          1      )

 cart.    s( 6) = (  0.0000000 -1.0000000  0.0000000 )
                  (  0.0000000  0.0000000  1.0000000 )
                  ( -1.0000000  0.0000000  0.0000000 )


      isym =  7     120 deg rotation - cart. axis [1,1,-1]       

 cryst.   s( 7) = (     1          0         -1      )
                  (     0          0         -1      )
                  (     0          1         -1      )

 cart.    s( 7) = (  0.0000000  1.0000000  0.0000000 )
                  (  0.0000000  0.0000000 -1.0000000 )
                  ( -1.0000000  0.0000000  0.0000000 )


      isym =  8     120 deg rotation - cart. axis [1,-1,1]       

 cryst.   s( 8) = (    -1          0          1      )
                  (    -1          1          0      )
                  (    -1          0          0      )

 cart.    s( 8) = (  0.0000000 -1.0000000  0.0000000 )
                  (  0.0000000  0.0000000 -1.0000000 )
                  (  1.0000000  0.0000000  0.0000000 )


      isym =  9     120 deg rotation - cart. axis [1,1,1]        

 cryst.   s( 9) = (     0          0          1      )
                  (     1          0          0      )
                  (     0          1          0      )

 cart.    s( 9) = (  0.0000000  0.0000000  1.0000000 )
                  (  1.0000000  0.0000000  0.0000000 )
                  (  0.0000000  1.0000000  0.0000000 )


      isym = 10     120 deg rotation - cart. axis [-1,1,-1]      

 cryst.   s(10) = (     0          0         -1      )
                  (     0          1         -1      )
                  (     1          0         -1      )

 cart.    s(10) = (  0.0000000  0.0000000  1.0000000 )
                  ( -1.0000000  0.0000000  0.0000000 )
                  (  0.0000000 -1.0000000  0.0000000 )


      isym = 11     120 deg rotation - cart. axis [1,-1,-1]      

 cryst.   s(11) = (    -1          1          0      )
                  (    -1          0          0      )
                  (    -1          0          1      )

 cart.    s(11) = (  0.0000000  0.0000000 -1.0000000 )
                  ( -1.0000000  0.0000000  0.0000000 )
                  (  0.0000000  1.0000000  0.0000000 )


      isym = 12     120 deg rotation - cart. axis [-1,-1,1]      

 cryst.   s(12) = (     1         -1          0      )
                  (     0         -1          1      )
                  (     0         -1          0      )

 cart.    s(12) = (  0.0000000  0.0000000 -1.0000000 )
                  (  1.0000000  0.0000000  0.0000000 )
                  (  0.0000000 -1.0000000  0.0000000 )


      isym = 13     inv. 180 deg rotation - cart. axis [1,1,0]   

 cryst.   s(13) = (    -1          0          0      )
                  (    -1          1          0      )
                  (    -1          0          1      )

 cart.    s(13) = (  0.0000000 -1.0000000  0.0000000 )
                  ( -1.0000000  0.0000000  0.0000000 )
                  (  0.0000000  0.0000000  1.0000000 )


      isym = 14     inv. 180 deg rotation - cart. axis [1,-1,0]  

 cryst.   s(14) = (     1          0          0      )
                  (     0          0          1      )
                  (     0          1          0      )

 cart.    s(14) = (  0.0000000  1.0000000  0.0000000 )
                  (  1.0000000  0.0000000  0.0000000 )
                  (  0.0000000  0.0000000  1.0000000 )


      isym = 15     inv.  90 deg rotation - cart. axis [0,0,-1]  

 cryst.   s(15) = (     0         -1          1      )
                  (     1         -1          0      )
                  (     0         -1          0      )

 cart.    s(15) = (  0.0000000 -1.0000000  0.0000000 )
                  (  1.0000000  0.0000000  0.0000000 )
                  (  0.0000000  0.0000000 -1.0000000 )


      isym = 16     inv.  90 deg rotation - cart. axis [0,0,1]   

 cryst.   s(16) = (     0          1         -1      )
                  (     0          0         -1      )
                  (     1          0         -1      )

 cart.    s(16) = (  0.0000000  1.0000000  0.0000000 )
                  ( -1.0000000  0.0000000  0.0000000 )
                  (  0.0000000  0.0000000 -1.0000000 )


      isym = 17     inv. 180 deg rotation - cart. axis [1,0,1]   

 cryst.   s(17) = (     1         -1          0      )
                  (     0         -1          0      )
                  (     0         -1          1      )

 cart.    s(17) = (  0.0000000  0.0000000 -1.0000000 )
                  (  0.0000000  1.0000000  0.0000000 )
                  ( -1.0000000  0.0000000  0.0000000 )


      isym = 18     inv. 180 deg rotation - cart. axis [-1,0,1]  

 cryst.   s(18) = (     0          0          1      )
                  (     0          1          0      )
                  (     1          0          0      )

 cart.    s(18) = (  0.0000000  0.0000000  1.0000000 )
                  (  0.0000000  1.0000000  0.0000000 )
                  (  1.0000000  0.0000000  0.0000000 )


      isym = 19     inv.  90 deg rotation - cart. axis [0,1,0]   

 cryst.   s(19) = (    -1          1          0      )
                  (    -1          0          1      )
                  (    -1          0          0      )

 cart.    s(19) = (  0.0000000  0.0000000 -1.0000000 )
                  (  0.0000000 -1.0000000  0.0000000 )
                  (  1.0000000  0.0000000  0.0000000 )


      isym = 20     inv.  90 deg rotation - cart. axis [0,-1,0]  

 cryst.   s(20) = (     0          0         -1      )
                  (     1          0         -1      )
                  (     0          1         -1      )

 cart.    s(20) = (  0.0000000  0.0000000  1.0000000 )
                  (  0.0000000 -1.0000000  0.0000000 )
                  ( -1.0000000  0.0000000  0.0000000 )


      isym = 21     inv. 180 deg rotation - cart. axis [0,1,1]   

 cryst.   s(21) = (     1          0         -1      )
                  (     0          1         -1      )
                  (     0          0         -1      )

 cart.    s(21) = (  1.0000000  0.0000000  0.0000000 )
                  (  0.0000000  0.0000000 -1.0000000 )
                  (  0.0000000 -1.0000000  0.0000000 )


      isym = 22     inv. 180 deg rotation - cart. axis [0,1,-1]  

 cryst.   s(22) = (     0          1          0      )
                  (     1          0          0      )
                  (     0          0          1      )

 cart.    s(22) = (  1.0000000  0.0000000  0.0000000 )
                  (  0.0000000  0.0000000  1.0000000 )
                  (  0.0000000  1.0000000  0.0000000 )


      isym = 23     inv.  90 deg rotation - cart. axis [-1,0,0]  

 cryst.   s(23) = (    -1          0          1      )
                  (    -1          0          0      )
                  (    -1          1          0      )

 cart.    s(23) = ( -1.0000000  0.0000000  0.0000000 )
                  (  0.0000000  0.0000000 -1.0000000 )
                  (  0.0000000  1.0000000  0.0000000 )


      isym = 24     inv.  90 deg rotation - cart. axis [1,0,0]   

 cryst.   s(24) = (     0         -1          0      )
                  (     0         -1          1      )
                  (     1         -1          0      )

 cart.    s(24) = ( -1.0000000  0.0000000  0.0000000 )
                  (  0.0000000  0.0000000  1.0000000 )
                  (  0.0000000 -1.0000000  0.0000000 )


   Cartesian axes

     site n.     atom                  positions (alat units)
         1           As  tau(   1) = (   0.2500000   0.2500000   0.2500000  )
         2           Al  tau(   2) = (   0.0000000   0.0000000   0.0000000  )

   Crystallographic axes

     site n.     atom                  positions (cryst. coord.)
         1           As  tau(   1) = (  0.2500000  0.2500000  0.2500000  )
         2           Al  tau(   2) = (  0.0000000  0.0000000  0.0000000  )

     number of k points=    20  Marzari-Vanderbilt smearing, width (Ry)=  0.0050
                       cart. coord. in units 2pi/alat
        k(    1) = (   0.0000000   0.0000000   0.0000000), wk =   0.0029155
        k(    2) = (  -0.1428571   0.1428571   0.1428571), wk =   0.0233236
        k(    3) = (  -0.2857143   0.2857143   0.2857143), wk =   0.0233236
        k(    4) = (  -0.4285714   0.4285714   0.4285714), wk =   0.0233236
        k(    5) = (   0.0000000   0.0000000   0.2857143), wk =   0.0174927
        k(    6) = (  -0.1428571   0.1428571   0.4285714), wk =   0.0699708
        k(    7) = (  -0.2857143   0.2857143   0.5714286), wk =   0.0699708
        k(    8) = (   0.5714286  -0.5714286  -0.2857143), wk =   0.0699708
        k(    9) = (   0.4285714  -0.4285714  -0.1428571), wk =   0.0699708
        k(   10) = (   0.2857143  -0.2857143  -0.0000000), wk =   0.0349854
        k(   11) = (   0.0000000   0.0000000   0.5714286), wk =   0.0174927
        k(   12) = (  -0.1428571   0.1428571   0.7142857), wk =   0.0699708
        k(   13) = (   0.7142857  -0.7142857  -0.1428571), wk =   0.0699708
        k(   14) = (   0.5714286  -0.5714286   0.0000000), wk =   0.0349854
        k(   15) = (   0.0000000   0.0000000   0.8571429), wk =   0.0174927
        k(   16) = (   0.8571429  -0.8571429  -0.0000000), wk =   0.0349854
        k(   17) = (   0.0000000   0.2857143   0.5714286), wk =   0.0699708
        k(   18) = (   0.8571429  -0.5714286  -0.2857143), wk =   0.1399417
        k(   19) = (   1.0000000  -0.7142857  -0.1428571), wk =   0.0699708
        k(   20) = (   0.8571429  -0.5714286   0.0000000), wk =   0.0699708

                       cryst. coord.
        k(    1) = (   0.0000000   0.0000000   0.0000000), wk =   0.0029155
        k(    2) = (   0.0000000   0.0000000   0.1428571), wk =   0.0233236
        k(    3) = (   0.0000000   0.0000000   0.2857143), wk =   0.0233236
        k(    4) = (   0.0000000   0.0000000   0.4285714), wk =   0.0233236
        k(    5) = (   0.0000000   0.1428571   0.1428571), wk =   0.0174927
        k(    6) = (   0.0000000   0.1428571   0.2857143), wk =   0.0699708
        k(    7) = (   0.0000000   0.1428571   0.4285714), wk =   0.0699708
        k(    8) = (   0.0000000   0.1428571  -0.4285714), wk =   0.0699708
        k(    9) = (   0.0000000   0.1428571  -0.2857143), wk =   0.0699708
        k(   10) = (   0.0000000   0.1428571  -0.1428571), wk =   0.0349854
        k(   11) = (   0.0000000   0.2857143   0.2857143), wk =   0.0174927
        k(   12) = (   0.0000000   0.2857143   0.4285714), wk =   0.0699708
        k(   13) = (   0.0000000   0.2857143  -0.4285714), wk =   0.0699708
        k(   14) = (   0.0000000   0.2857143  -0.2857143), wk =   0.0349854
        k(   15) = (   0.0000000   0.4285714   0.4285714), wk =   0.0174927
        k(   16) = (   0.0000000   0.4285714  -0.4285714), wk =   0.0349854
        k(   17) = (   0.1428571   0.2857143   0.4285714), wk =   0.0699708
        k(   18) = (   0.1428571   0.2857143  -0.4285714), wk =   0.1399417
        k(   19) = (   0.1428571   0.4285714  -0.4285714), wk =   0.0699708
        k(   20) = (   0.1428571   0.4285714  -0.2857143), wk =   0.0699708

     Dense  grid:    14553 G-vectors     FFT dimensions: (  36,  36,  36)

     Dynamical RAM for                 wfc:       0.45 MB

     Dynamical RAM for     wfc (w. buffer):       9.36 MB

     Dynamical RAM for           str. fact:       0.22 MB

     Dynamical RAM for           local pot:       0.00 MB

     Dynamical RAM for          nlocal pot:       0.67 MB

     Dynamical RAM for                qrad:       5.95 MB

     Dynamical RAM for          rho,v,vnew:       3.47 MB

     Dynamical RAM for               rhoin:       1.16 MB

     Dynamical RAM for            rho*nmix:       7.11 MB

     Dynamical RAM for           G-vectors:       0.47 MB

     Dynamical RAM for          h,s,v(r/c):       0.19 MB

     Dynamical RAM for          <psi|beta>:       0.02 MB

     Dynamical RAM for                 psi:       1.78 MB

     Dynamical RAM for                hpsi:       1.78 MB

     Dynamical RAM for                spsi:       1.78 MB

     Dynamical RAM for      wfcinit/wfcrot:       0.67 MB

     Dynamical RAM for           addusdens:      67.84 MB

     Dynamical RAM for          addusforce:      67.91 MB

     Dynamical RAM for         addusstress:      69.73 MB

     Estimated static dynamical RAM per process >      23.06 MB

     Estimated max dynamical RAM per process >      99.89 MB

     Estimated total dynamical RAM >     199.79 MB

     Initial potential from superposition of free atoms

     starting charge       7.9975, renormalised to       8.0000
     Starting wfcs are   16 randomized atomic wfcs
     Checking if some PAW data can be deallocated... 
       PAW data deallocated on    1 nodes for type:  1
       PAW data deallocated on    1 nodes for type:  2

     total cpu time spent up to now is        2.8 secs

     per-process dynamical memory:    40.0 Mb

     Self-consistent Calculation

     iteration #  1     ecut=    50.00 Ry     beta= 0.30
     Davidson diagonalization with overlap

---- Real-time Memory Report at c_bands before calling an iterative solver
           124 MiB given to the printing process from OS
            39 MiB allocation reported by mallinfo(arena+hblkhd)
           243 MiB available memory on the node where the printing process lives
------------------
     ethr =  1.00E-02,  avg # of iterations =  3.4

     Threshold (ethr) on eigenvalues was too large:
     Diagonalizing with lowered threshold

     Davidson diagonalization with overlap

---- Real-time Memory Report at c_bands before calling an iterative solver
           145 MiB given to the printing process from OS
            51 MiB allocation reported by mallinfo(arena+hblkhd)
           230 MiB available memory on the node where the printing process lives
------------------
     ethr =  7.54E-04,  avg # of iterations =  1.0

     total cpu time spent up to now is        7.7 secs

     total energy              =    -215.74279703 Ry
     estimated scf accuracy    <       0.06012649 Ry

     iteration #  2     ecut=    50.00 Ry     beta= 0.30
     Davidson diagonalization with overlap

---- Real-time Memory Report at c_bands before calling an iterative solver
           152 MiB given to the printing process from OS
            58 MiB allocation reported by mallinfo(arena+hblkhd)
           240 MiB available memory on the node where the printing process lives
------------------
     ethr =  7.52E-04,  avg # of iterations =  1.0

     total cpu time spent up to now is        9.8 secs

     total energy              =    -215.74099440 Ry
     estimated scf accuracy    <       0.01889409 Ry

     iteration #  3     ecut=    50.00 Ry     beta= 0.30
     Davidson diagonalization with overlap

---- Real-time Memory Report at c_bands before calling an iterative solver
           153 MiB given to the printing process from OS
            59 MiB allocation reported by mallinfo(arena+hblkhd)
           238 MiB available memory on the node where the printing process lives
------------------
     ethr =  2.36E-04,  avg # of iterations =  1.2

     total cpu time spent up to now is       11.8 secs

     total energy              =    -215.74246024 Ry
     estimated scf accuracy    <       0.00190102 Ry

     iteration #  4     ecut=    50.00 Ry     beta= 0.30
     Davidson diagonalization with overlap

---- Real-time Memory Report at c_bands before calling an iterative solver
           154 MiB given to the printing process from OS
            60 MiB allocation reported by mallinfo(arena+hblkhd)
           236 MiB available memory on the node where the printing process lives
------------------
     ethr =  2.38E-05,  avg # of iterations =  2.4

     total cpu time spent up to now is        3.8 secs

     total energy              =    -215.74264399 Ry
     estimated scf accuracy    <       0.00001851 Ry

     iteration #  5     ecut=    50.00 Ry     beta= 0.30
     Davidson diagonalization with overlap

---- Real-time Memory Report at c_bands before calling an iterative solver
           155 MiB given to the printing process from OS
            61 MiB allocation reported by mallinfo(arena+hblkhd)
           234 MiB available memory on the node where the printing process lives
------------------
     ethr =  2.31E-07,  avg # of iterations =  3.4

     total cpu time spent up to now is        6.5 secs

     total energy              =    -215.74265414 Ry
     estimated scf accuracy    <       0.00000409 Ry

     iteration #  6     ecut=    50.00 Ry     beta= 0.30
     Davidson diagonalization with overlap

---- Real-time Memory Report at c_bands before calling an iterative solver
           155 MiB given to the printing process from OS
            62 MiB allocation reported by mallinfo(arena+hblkhd)
           232 MiB available memory on the node where the printing process lives
------------------
     ethr =  5.11E-08,  avg # of iterations =  1.0

     total cpu time spent up to now is        8.5 secs

     total energy              =    -215.74265450 Ry
     estimated scf accuracy    <       0.00000011 Ry

     iteration #  7     ecut=    50.00 Ry     beta= 0.30
     Davidson diagonalization with overlap

---- Real-time Memory Report at c_bands before calling an iterative solver
           156 MiB given to the printing process from OS
            62 MiB allocation reported by mallinfo(arena+hblkhd)
           230 MiB available memory on the node where the printing process lives
------------------
     ethr =  1.32E-09,  avg # of iterations =  2.4

     total cpu time spent up to now is       10.9 secs

     total energy              =    -215.74265450 Ry
     estimated scf accuracy    <       0.00000012 Ry

     iteration #  8     ecut=    50.00 Ry     beta= 0.30
     Davidson diagonalization with overlap

---- Real-time Memory Report at c_bands before calling an iterative solver
           157 MiB given to the printing process from OS
            63 MiB allocation reported by mallinfo(arena+hblkhd)
           228 MiB available memory on the node where the printing process lives
------------------
     ethr =  1.32E-09,  avg # of iterations =  1.1

     total cpu time spent up to now is       12.9 secs

     End of self-consistent calculation

          k = 0.0000 0.0000 0.0000 (  1837 PWs)   bands (ev):

    -6.9840  -6.9840   4.6773   4.6773   4.9764   4.9764   4.9764   4.9764
     6.9473   6.9473   9.1399   9.1399   9.1804   9.1804   9.1804   9.1804

     occupation numbers 
     1.0000   1.0000   1.0000   1.0000   1.0000   1.0000   1.0000   1.0000
     0.0000   0.0000   0.0000   0.0000   0.0000   0.0000   0.0000   0.0000

          k =-0.1429 0.1429 0.1429 (  1835 PWs)   bands (ev):

    -6.7853  -6.7853   3.1572   3.1572   4.5841   4.5841   4.7685   4.7685
     7.7165   7.7165   9.5009   9.5009   9.5385   9.5386   9.7801   9.7801

     occupation numbers 
     1.0000   1.0000   1.0000   1.0000   1.0000   1.0000   1.0000   1.0000
     0.0000   0.0000   0.0000   0.0000   0.0000   0.0000   0.0000   0.0000

          k =-0.2857 0.2857 0.2857 (  1841 PWs)   bands (ev):

    -6.2512  -6.2512   0.9861   0.9861   4.2246   4.2246   4.4031   4.4032
     7.3855   7.3855   9.7746   9.7746   9.8118   9.8118  11.8756  11.8756

     occupation numbers 
     1.0000   1.0000   1.0000   1.0000   1.0000   1.0000   1.0000   1.0000
     0.0000   0.0000   0.0000   0.0000   0.0000   0.0000   0.0000   0.0000

          k =-0.4286 0.4286 0.4286 (  1838 PWs)   bands (ev):

    -5.6694  -5.6694  -0.4763  -0.4763   3.9976   3.9976   4.1722   4.1722
     7.0627   7.0627   9.5805   9.5805   9.6083   9.6083  12.6908  12.6908

     occupation numbers 
     1.0000   1.0000   1.0000   1.0000   1.0000   1.0000   1.0000   1.0000
     0.0000   0.0000   0.0000   0.0000   0.0000   0.0000   0.0000   0.0000

          k = 0.0000 0.0000 0.2857 (  1836 PWs)   bands (ev):

    -6.7183  -6.7183   3.2215   3.2215   4.1828   4.1828   4.3403   4.3403
     8.3697   8.3697   8.5932   8.5932  10.1863  10.1863  10.2130  10.2130

     occupation numbers 
     1.0000   1.0000   1.0000   1.0000   1.0000   1.0000   1.0000   1.0000
     0.0000   0.0000   0.0000   0.0000   0.0000   0.0000   0.0000   0.0000

          k =-0.1429 0.1429 0.4286 (  1832 PWs)   bands (ev):

    -6.2911  -6.2911   1.5504   1.5728   3.7106   3.7653   3.8883   3.8964
     8.1233   8.1289   9.1747   9.2289  10.4663  10.4828  10.8385  10.8386

     occupation numbers 
     1.0000   1.0000   1.0000   1.0000   1.0000   1.0000   1.0000   1.0000
     0.0000   0.0000   0.0000   0.0000   0.0000   0.0000   0.0000   0.0000

          k =-0.2857 0.2857 0.5714 (  1824 PWs)   bands (ev):

    -5.6931  -5.6929  -0.0319  -0.0122   3.1794   3.2324   3.6816   3.6886
     7.8858   7.8938   9.4907   9.5114  10.5952  10.5957  11.4251  11.4537

     occupation numbers 
     1.0000   1.0000   1.0000   1.0000   1.0000   1.0000   1.0000   1.0000
     0.0000   0.0000   0.0000   0.0000   0.0000   0.0000   0.0000   0.0000

          k = 0.5714-0.5714-0.2857 (  1832 PWs)   bands (ev):

    -5.4529  -5.4524  -0.5303  -0.5099   2.8338   2.8827   3.8319   3.8357
     7.9023   7.9154   9.4586   9.4602  10.2313  10.2316  13.0997  13.1791

     occupation numbers 
     1.0000   1.0000   1.0000   1.0000   1.0000   1.0000   1.0000   1.0000
     0.0000   0.0000   0.0000   0.0000   0.0000   0.0000   0.0000   0.0000

          k = 0.4286-0.4286-0.1429 (  1832 PWs)   bands (ev):

    -5.8933  -5.8932   0.4288   0.4563   2.8774   2.9331   4.2315   4.2348
     8.2173   8.2408   9.7371   9.7561  10.0793  10.0801  11.7110  11.7678

     occupation numbers 
     1.0000   1.0000   1.0000   1.0000   1.0000   1.0000   1.0000   1.0000
     0.0000   0.0000   0.0000   0.0000   0.0000   0.0000   0.0000   0.0000

          k = 0.2857-0.2857-0.0000 (  1849 PWs)   bands (ev):

    -6.4715  -6.4715   2.0244   2.0616   3.5186   3.5841   4.6511   4.6555
     8.4344   8.4750   9.4448   9.4550   9.6901   9.6917  10.7460  10.7581

     occupation numbers 
     1.0000   1.0000   1.0000   1.0000   1.0000   1.0000   1.0000   1.0000
     0.0000   0.0000   0.0000   0.0000   0.0000   0.0000   0.0000   0.0000

          k = 0.0000 0.0000 0.5714 (  1824 PWs)   bands (ev):

    -5.9946  -5.9946   1.1810   1.1810   3.2579   3.2579   3.3940   3.3940
     7.1841   7.1841   8.3105   8.3105  12.2693  12.2693  12.3382  12.3382

     occupation numbers 
     1.0000   1.0000   1.0000   1.0000   1.0000   1.0000   1.0000   1.0000
     0.0000   0.0000   0.0000   0.0000   0.0000   0.0000   0.0000   0.0000

          k =-0.1429 0.1429 0.7143 (  1823 PWs)   bands (ev):

    -5.4914  -5.4910   0.1840   0.2138   2.4997   2.5595   3.1045   3.1107
     7.1630   7.1717   8.5211   8.5656  12.0851  12.0965  12.6431  12.6441

     occupation numbers 
     1.0000   1.0000   1.0000   1.0000   1.0000   1.0000   1.0000   1.0000
     0.0000   0.0000   0.0000   0.0000   0.0000   0.0000   0.0000   0.0000

          k = 0.7143-0.7143-0.1429 (  1821 PWs)   bands (ev):

    -5.1633  -5.1621  -0.3081  -0.2552   1.6221   1.7034   3.2437   3.2467
     7.3534   7.3614  10.4770  10.5440  11.8470  11.8523  12.1313  12.1321

     occupation numbers 
     1.0000   1.0000   1.0000   1.0000   1.0000   1.0000   1.0000   1.0000
     0.0000   0.0000   0.0000   0.0000   0.0000   0.0000   0.0000   0.0000

          k = 0.5714-0.5714 0.0000 (  1820 PWs)   bands (ev):

    -5.3920  -5.3911  -0.0009   0.0640   1.5745   1.6674   3.7003   3.7028
     7.9339   7.9370  11.1572  11.1942  11.3417  11.3506  11.6609  11.7700

     occupation numbers 
     1.0000   1.0000   1.0000   1.0000   1.0000   1.0000   1.0000   1.0000
     0.0000   0.0000   0.0000   0.0000   0.0000   0.0000   0.0000   0.0000

          k = 0.0000 0.0000 0.8571 (  1816 PWs)   bands (ev):

    -5.1704  -5.1704  -0.3121  -0.3121   2.7152   2.7152   2.8416   2.8416
     6.4119   6.4119   7.2845   7.2845  14.5553  14.5554  14.6647  14.6647

     occupation numbers 
     1.0000   1.0000   1.0000   1.0000   1.0000   1.0000   1.0000   1.0000
     0.0000   0.0000   0.0000   0.0000   0.0000   0.0000   0.0000   0.0000

          k = 0.8571-0.8571-0.0000 (  1804 PWs)   bands (ev):

    -5.0080  -5.0069  -0.4704  -0.4393   2.0105   2.0685   2.8335   2.8380
     6.7168   6.7275   8.1005   8.1415  14.2310  14.2450  14.3625  14.3689

     occupation numbers 
     1.0000   1.0000   1.0000   1.0000   1.0000   1.0000   1.0000   1.0000
     0.0000   0.0000   0.0000   0.0000   0.0000   0.0000   0.0000   0.0000

          k = 0.0000 0.2857 0.5714 (  1838 PWs)   bands (ev):

    -5.8161  -5.8159   0.6619   0.7042   2.5261   2.6065   3.6040   3.6585
     8.4601   8.4985   9.2514   9.3134  10.0669  10.0709  11.9749  12.0299

     occupation numbers 
     1.0000   1.0000   1.0000   1.0000   1.0000   1.0000   1.0000   1.0000
     0.0000   0.0000   0.0000   0.0000   0.0000   0.0000   0.0000   0.0000

          k = 0.8571-0.5714-0.2857 (  1829 PWs)   bands (ev):

    -5.3219  -5.3210  -0.1967  -0.1506   1.9567   2.0380   3.1817   3.2301
     8.6303   8.6919   9.3182   9.3393  11.0722  11.1368  12.3177  12.3645

     occupation numbers 
     1.0000   1.0000   1.0000   1.0000   1.0000   1.0000   1.0000   1.0000
     0.0000   0.0000   0.0000   0.0000   0.0000   0.0000   0.0000   0.0000

          k = 1.0000-0.7143-0.1429 (  1821 PWs)   bands (ev):

    -5.1182  -5.1171  -0.2492  -0.2048   2.0342   2.1325   2.4580   2.5236
     7.7432   7.7580   8.6375   8.6867  11.7387  11.7660  14.1331  14.2252

     occupation numbers 
     1.0000   1.0000   1.0000   1.0000   1.0000   1.0000   1.0000   1.0000
     0.0000   0.0000   0.0000   0.0000   0.0000   0.0000   0.0000   0.0000

          k = 0.8571-0.5714 0.0000 (  1823 PWs)   bands (ev):

    -5.0351  -5.0335  -0.2510  -0.1798   1.4412   1.5440   2.5441   2.5859
     8.3704   8.4056  10.3940  10.4540  11.2157  11.2519  11.7072  11.7304

     occupation numbers 
     1.0000   1.0000   1.0000   1.0000   1.0000   1.0000   1.0000   1.0000
     0.0000   0.0000   0.0000   0.0000   0.0000   0.0000   0.0000   0.0000

     the Fermi energy is     5.2785 ev

!    total energy              =    -215.74265451 Ry

     total all-electron energy =     -5007.919121 Ry
     estimated scf accuracy    <          8.8E-11 Ry
     smearing contrib. (-TS)   =       0.00000000 Ry
     internal energy E=F+TS    =    -215.74265451 Ry

     The total energy is F=E-TS. E is the sum of the following terms:
     one-electron contribution =       4.53905317 Ry
     hartree contribution      =       1.61422658 Ry
     xc contribution           =     -14.12617856 Ry
     ewald contribution        =     -16.82128696 Ry
     one-center paw contrib.   =    -190.94846874 Ry
      -> PAW hartree energy AE =       8.22611119 Ry
      -> PAW hartree energy PS =      -8.20641165 Ry
      -> PAW xc energy AE      =    -167.43018498 Ry
      -> PAW xc energy PS      =      11.14773930 Ry
      -> total E_H with PAW    =       1.63392612 Ry
      -> total E_XC with PAW   =    -170.40862424 Ry

     convergence has been achieved in   8 iterations

     Forces acting on atoms (cartesian axes, Ry/au):

     atom    1 type  1   force =    -0.00000000    0.00000000    0.00000000
     atom    2 type  2   force =     0.00000000   -0.00000000   -0.00000000
     The non-local contrib.  to forces
     atom    1 type  1   force =     0.00000000   -0.00000000   -0.00000000
     atom    2 type  2   force =     0.00000000    0.00000000    0.00000000
     The ionic contribution  to forces
     atom    1 type  1   force =     0.00000000   -0.00000000   -0.00000000
     atom    2 type  2   force =     0.00000000    0.00000000    0.00000000
     The local contribution  to forces
     atom    1 type  1   force =    -0.00000000    0.00000000   -0.00000000
     atom    2 type  2   force =     0.00000000    0.00000000    0.00000000
     The core correction contribution to forces
     atom    1 type  1   force =    -0.00000000   -0.00000000   -0.00000000
     atom    2 type  2   force =    -0.00000000    0.00000000    0.00000000
     The Hubbard contrib.    to forces
     atom    1 type  1   force =     0.00000000    0.00000000    0.00000000
     atom    2 type  2   force =     0.00000000    0.00000000    0.00000000
     The SCF correction term to forces
     atom    1 type  1   force =     0.00000000    0.00000000    0.00000000
     atom    2 type  2   force =    -0.00000000    0.00000000    0.00000000

     Total force =     0.000000     Total SCF correction =     0.000000


     Computing stress (Cartesian axis) and pressure

          total   stress  (Ry/bohr**3)                   (kbar)     P=       27.87
   0.00018946  -0.00000000   0.00000000           27.87       -0.00        0.00
  -0.00000000   0.00018946   0.00000000           -0.00       27.87        0.00
   0.00000000   0.00000000   0.00018946            0.00        0.00       27.87

     kinetic stress (kbar)   2087.50      0.00     -0.00
                                0.00   2087.50     -0.00
                               -0.00     -0.00   2087.50

     local   stress (kbar)    518.45     -0.00     -0.00
                               -0.00    518.45     -0.00
                               -0.00     -0.00    518.45

     nonloc. stress (kbar)    922.16      0.00     -0.00
                                0.00    922.16     -0.00
                               -0.00     -0.00    922.16

     hartree stress (kbar)    258.64      0.00      0.00
                                0.00    258.64      0.00
                                0.00      0.00    258.64

     exc-cor stress (kbar)   3414.49      0.00      0.00
                                0.00   3414.49      0.00
                                0.00      0.00   3414.49

     corecor stress (kbar)  -4478.14      0.00     -0.00
                                0.00  -4478.14      0.00
                               -0.00      0.00  -4478.14

     ewald   stress (kbar)  -2695.23      0.00      0.00
                                0.00  -2695.23      0.00
                                0.00      0.00  -2695.23

     hubbard stress (kbar)      0.00      0.00      0.00
                                0.00      0.00      0.00
                                0.00      0.00      0.00

     DFT-D   stress (kbar)      0.00      0.00      0.00
                                0.00      0.00      0.00
                                0.00      0.00      0.00

     XDM     stress (kbar)      0.00      0.00      0.00
                                0.00      0.00      0.00
                                0.00      0.00      0.00

     dft-nl  stress (kbar)      0.00      0.00      0.00
                                0.00      0.00      0.00
                                0.00      0.00      0.00

     TS-vdW  stress (kbar)      0.00      0.00      0.00
                                0.00      0.00      0.00
                                0.00      0.00      0.00


                                0.00      0.00      0.00
                                0.00      0.00      0.00


                                0.00      0.00      0.00


     Writing all to output data dir ./outputs/alas.save/

     init_run     :      1.77s CPU      2.41s WALL (       1 calls)
     electrons    :     18.25s CPU     10.04s WALL (       1 calls)
     forces       :      0.26s CPU      0.39s WALL (       1 calls)
     stress       :      1.42s CPU      1.52s WALL (       1 calls)

     Called by init_run:
     wfcinit      :      0.57s CPU      0.66s WALL (       1 calls)
     wfcinit:atom :      0.00s CPU      0.01s WALL (      20 calls)
     wfcinit:wfcr :      0.54s CPU      0.59s WALL (      20 calls)
     potinit      :      0.21s CPU      0.34s WALL (       1 calls)
     hinit0       :      0.85s CPU      0.98s WALL (       1 calls)

     Called by electrons:
     c_bands      :     12.06s CPU     13.00s WALL (       9 calls)
     sum_band     :      3.67s CPU     -5.77s WALL (       9 calls)
     v_of_rho     :      0.09s CPU      0.10s WALL (       9 calls)
     v_h          :      0.00s CPU      0.00s WALL (       9 calls)
     v_xc         :      0.11s CPU      0.14s WALL (      11 calls)
     newd         :      1.15s CPU      1.59s WALL (       9 calls)
     PAW_pot      :      1.50s CPU      1.70s WALL (       9 calls)
     mix_rho      :      0.04s CPU      0.07s WALL (       9 calls)

     Called by c_bands:
     init_us_2    :      0.18s CPU      0.24s WALL (     420 calls)
     init_us_2:cp :      0.17s CPU      0.24s WALL (     420 calls)
     cegterg      :     11.20s CPU     12.07s WALL (     180 calls)

     Called by sum_band:
     sum_band:wei :      0.00s CPU      0.00s WALL (       9 calls)
     sum_band:loo :      2.52s CPU     -7.30s WALL (       9 calls)
     sum_band:buf :      0.01s CPU      0.02s WALL (     180 calls)
     sum_band:ini :      0.08s CPU      0.10s WALL (     180 calls)
     sum_band:cal :      0.21s CPU     -9.99s WALL (     180 calls)
     sum_band:bec :      0.24s CPU      0.26s WALL (     180 calls)
     addusdens    :      1.12s CPU      1.48s WALL (       9 calls)
     addusd:skk   :      0.00s CPU      0.00s WALL (      18 calls)
     addusd:dgemm :      0.28s CPU      0.58s WALL (      18 calls)
     addusd:qvan2 :      0.78s CPU      0.84s WALL (      18 calls)

     Called by *egterg:
     cdiaghg      :      0.18s CPU      0.19s WALL (     495 calls)
     cegterg:over :      0.45s CPU      0.48s WALL (     335 calls)
     cegterg:upda :      0.31s CPU      0.32s WALL (     335 calls)
     cegterg:last :      0.18s CPU      0.18s WALL (     180 calls)
     h_psi        :      9.68s CPU     10.49s WALL (     535 calls)
     s_psi        :      0.51s CPU      0.54s WALL (     535 calls)
     g_psi        :      0.10s CPU      0.11s WALL (     335 calls)

     Called by h_psi:
     h_psi:calbec :      0.53s CPU      0.57s WALL (     535 calls)
     vloc_psi     :      8.60s CPU      9.34s WALL (     535 calls)
     add_vuspsi   :      0.51s CPU      0.54s WALL (     535 calls)

     General routines
     calbec       :      0.85s CPU     -9.29s WALL (     815 calls)
     fft          :      0.41s CPU      0.47s WALL (     152 calls)
     ffts         :      0.01s CPU      0.01s WALL (      36 calls)
     fftw         :      8.69s CPU      9.62s WALL (   33640 calls)

     Parallel routines

     PAW routines
     PAW_pot      :      1.50s CPU      1.70s WALL (       9 calls)
     PAW_symme    :      0.01s CPU      0.01s WALL (      18 calls)

     PWSCF        :     22.15s CPU     14.94s WALL


   This run was terminated on:   6:58:59   3Jan2025            

=------------------------------------------------------------------------------=
   JOB DONE.
=------------------------------------------------------------------------------=
