
     Program BANDS v.7.0 starts on 12Dec2024 at  6:20:30 

     This program is part of the open-source Quantum ESPRESSO suite
     for quantum simulation of materials; please cite
         "P. Giannozzi et al., J. Phys.:Condens. Matter 21 395502 (2009);
         "P. Giannozzi et al., J. Phys.:Condens. Matter 29 465901 (2017);
         "P. Giannozzi et al., J. Chem. Phys. 152 154105 (2020);
          URL http://www.quantum-espresso.org", 
     in publications or presentations arising from this work. More details at
     http://www.quantum-espresso.org/quote

     Parallel version (MPI & OpenMP), running on       2 processor cores
     Number of MPI processes:                 1
     Threads/MPI process:                     2

     MPI processes distributed on     1 nodes
     94 MiB available memory on the printing compute node when the environment starts


     Reading xml data from directory:

     ./outputs/basic.save/
     file Ga.pbe-dn-kjpaw_psl.1.0.0.UPF: wavefunction(s)  4S renormalized

     IMPORTANT: XC functional enforced from input :
     Exchange-correlation= PBE
                           (   1   4   3   4   0   0   0)
     Any further DFT definition will be discarded
     Please, verify this is what you really want


     G-vector sticks info
     --------------------
     sticks:   dense  smooth     PW     G-vecs:    dense   smooth      PW
     Sum         817     817    241                15353    15353    2445

     Using Slab Decomposition


     Check: negative core charge=   -0.000002
     Reading collected, re-writing distributed wavefunctions
     high-symmetry point:  0.0000 0.0000 0.0000   x coordinate   0.0000
     high-symmetry point:  0.5000-0.2887 0.4082   x coordinate   0.7071
     high-symmetry point:  0.5000 0.0000 0.6124   x coordinate   1.0607
     high-symmetry point:  0.3750 0.2165 0.6001   x coordinate   1.3110
     high-symmetry point:  0.0000 0.0000 0.0000   x coordinate   2.0510
     high-symmetry point:  0.5000 0.2887 0.2041   x coordinate   2.6634
     high-symmetry point:  0.6250-0.0722 0.4082   x coordinate   3.0964
     high-symmetry point:  0.5000 0.0000 0.6124   x coordinate   3.3464
     high-symmetry point:  0.5000 0.2887 0.2041   x coordinate   3.8464
     high-symmetry point:  0.3750 0.2165 0.6001   x coordinate   4.2679
     high-symmetry point:  0.5000-0.2887 0.4082   x coordinate   4.8225

     Plottable bands (eV) written to file gaasbands.dat.gnu
     Bands written to file gaasbands.dat

 **************************************************************************

                    xk=(   0.00000,   0.00000,   0.00000  )

     point group C_3v (3m)  
     there are  3 classes
     the character table:

       E     2C3   3s_v 
A_1    1.00  1.00  1.00
A_2    1.00  1.00 -1.00
E      2.00 -1.00  0.00

     the symmetry operations in each class and the name of the first element:

     E        1
                                                                 
     2C3      2    3
                                                                 
     3s_v     4    5    6
                                                                 

     Band symmetry, C_3v (3m)   point group:

     e(  1 -  3) =     -8.58025  eV     3   --> A_1  L_1       
     e(  1 -  3) =     -8.58025  eV     3   --> E    L_3       
     e(  4 -  5) =     -8.51396  eV     2   --> E    L_3       
     e(  6 -  6) =     -6.25495  eV     1   --> A_1  L_1       
     e(  7 -  9) =      6.12539  eV     3   --> A_1  L_1       
     e(  7 -  9) =      6.12539  eV     3   --> E    L_3       
     e( 10 - 10) =      6.27526  eV     1   --> A_1  L_1       

 **************************************************************************

 **************************************************************************

                    xk=(   0.01667,  -0.00962,   0.01361  )

     point group C_s (m)    
     there are  2 classes
     the character table:

       E     s    
A'     1.00  1.00
A''    1.00 -1.00

     the symmetry operations in each class and the name of the first element:

     E        1
                                                                 
     s        2
                                                                 

     Band symmetry, C_s (m)     point group:

     e(  1 -  1) =     -8.58058  eV     1   --> A'             
     e(  2 -  3) =     -8.58014  eV     2   --> A'             
     e(  2 -  3) =     -8.58014  eV     2   --> A''            
     e(  4 -  5) =     -8.51400  eV     2   --> A'             
     e(  4 -  5) =     -8.51400  eV     2   --> A''            
     e(  6 -  6) =     -6.25087  eV     1   --> A'             
     e(  7 -  7) =      5.90220  eV     1   --> A'             
     e(  8 -  9) =      6.11156  eV     2   --> A'             
     e(  8 -  9) =      6.11156  eV     2   --> A''            
     e( 10 - 10) =      6.49784  eV     1   --> A'             

 **************************************************************************

 **************************************************************************

                    xk=(   0.03333,  -0.01925,   0.02722  )

     Band symmetry, C_s (m)     point group:

     e(  1 -  1) =     -8.58156  eV     1   --> A'             
     e(  2 -  3) =     -8.57981  eV     2   --> A'             
     e(  2 -  3) =     -8.57981  eV     2   --> A''            
     e(  4 -  4) =     -8.51409  eV     1   --> A'             
     e(  5 -  5) =     -8.51383  eV     1   --> A''            
     e(  6 -  6) =     -6.23867  eV     1   --> A'             
     e(  7 -  7) =      5.61858  eV     1   --> A'             
     e(  8 -  9) =      6.07099  eV     2   --> A'             
     e(  8 -  9) =      6.07099  eV     2   --> A''            
     e( 10 - 10) =      6.77942  eV     1   --> A'             

 **************************************************************************

 **************************************************************************

                    xk=(   0.05000,  -0.02887,   0.04082  )

     Band symmetry, C_s (m)     point group:

     e(  1 -  1) =     -8.58318  eV     1   --> A'             
     e(  2 -  3) =     -8.57927  eV     2   --> A'             
     e(  2 -  3) =     -8.57927  eV     2   --> A''            
     e(  4 -  4) =     -8.51429  eV     1   --> A'             
     e(  5 -  5) =     -8.51367  eV     1   --> A''            
     e(  6 -  6) =     -6.21839  eV     1   --> A'             
     e(  7 -  7) =      5.33263  eV     1   --> A'             
     e(  8 -  9) =      6.00621  eV     2   --> A'             
     e(  8 -  9) =      6.00621  eV     2   --> A''            
     e( 10 - 10) =      7.06106  eV     1   --> A'             

 **************************************************************************

 **************************************************************************

                    xk=(   0.06667,  -0.03849,   0.05443  )

     Band symmetry, C_s (m)     point group:

     e(  1 -  1) =     -8.58539  eV     1   --> A'             
     e(  2 -  3) =     -8.57854  eV     2   --> A'             
     e(  2 -  3) =     -8.57854  eV     2   --> A''            
     e(  4 -  4) =     -8.51458  eV     1   --> A'             
     e(  5 -  5) =     -8.51344  eV     1   --> A''            
     e(  6 -  6) =     -6.19008  eV     1   --> A'             
     e(  7 -  7) =      5.04714  eV     1   --> A'             
     e(  8 -  9) =      5.92080  eV     2   --> A'             
     e(  8 -  9) =      5.92080  eV     2   --> A''            
     e( 10 - 10) =      7.33852  eV     1   --> A'             

 **************************************************************************

 **************************************************************************

                    xk=(   0.08333,  -0.04811,   0.06804  )

     Band symmetry, C_s (m)     point group:

     e(  1 -  1) =     -8.58814  eV     1   --> A'             
     e(  2 -  3) =     -8.57759  eV     2   --> A'             
     e(  2 -  3) =     -8.57759  eV     2   --> A''            
     e(  4 -  4) =     -8.51496  eV     1   --> A'             
     e(  5 -  5) =     -8.51315  eV     1   --> A''            
     e(  6 -  6) =     -6.15384  eV     1   --> A'             
     e(  7 -  7) =      4.76295  eV     1   --> A'             
     e(  8 -  9) =      5.81885  eV     2   --> A'             
     e(  8 -  9) =      5.81885  eV     2   --> A''            
     e( 10 - 10) =      7.60862  eV     1   --> A'             

 **************************************************************************

 **************************************************************************

                    xk=(   0.10000,  -0.05774,   0.08165  )

     Band symmetry, C_s (m)     point group:

     e(  1 -  1) =     -8.59137  eV     1   --> A'             
     e(  2 -  3) =     -8.57644  eV     2   --> A'             
     e(  2 -  3) =     -8.57644  eV     2   --> A''            
     e(  4 -  4) =     -8.51543  eV     1   --> A'             
     e(  5 -  5) =     -8.51281  eV     1   --> A''            
     e(  6 -  6) =     -6.10980  eV     1   --> A'             
     e(  7 -  7) =      4.48054  eV     1   --> A'             
     e(  8 -  9) =      5.70434  eV     2   --> A'             
     e(  8 -  9) =      5.70434  eV     2   --> A''            
     e( 10 - 10) =      7.86713  eV     1   --> A'             

 **************************************************************************

 **************************************************************************

                    xk=(   0.11667,  -0.06736,   0.09526  )

     Band symmetry, C_s (m)     point group:

     e(  1 -  1) =     -8.59506  eV     1   --> A'             
     e(  2 -  3) =     -8.57513  eV     2   --> A'             
     e(  2 -  3) =     -8.57513  eV     2   --> A''            
     e(  4 -  4) =     -8.51598  eV     1   --> A'             
     e(  5 -  5) =     -8.51242  eV     1   --> A''            
     e(  6 -  6) =     -6.05809  eV     1   --> A'             
     e(  7 -  7) =      4.20015  eV     1   --> A'             
     e(  8 -  9) =      5.58075  eV     2   --> A'             
     e(  8 -  9) =      5.58075  eV     2   --> A''            
     e( 10 - 10) =      8.10743  eV     1   --> A'             

 **************************************************************************

 **************************************************************************

                    xk=(   0.13333,  -0.07698,   0.10887  )

     Band symmetry, C_s (m)     point group:

     e(  1 -  1) =     -8.59909  eV     1   --> A'             
     e(  2 -  3) =     -8.57365  eV     2   --> A'             
     e(  2 -  3) =     -8.57365  eV     2   --> A''            
     e(  4 -  4) =     -8.51665  eV     1   --> A'             
     e(  5 -  5) =     -8.51195  eV     1   --> A''            
     e(  6 -  6) =     -5.99888  eV     1   --> A'             
     e(  7 -  7) =      3.92211  eV     1   --> A'             
     e(  8 -  9) =      5.45128  eV     2   --> A'             
     e(  8 -  9) =      5.45128  eV     2   --> A''            
     e( 10 - 10) =      8.31753  eV     1   --> A'             

 **************************************************************************

 **************************************************************************

                    xk=(   0.15000,  -0.08660,   0.12247  )

     Band symmetry, C_s (m)     point group:

     e(  1 -  1) =     -8.60341  eV     1   --> A'             
     e(  2 -  3) =     -8.57201  eV     2   --> A'             
     e(  2 -  3) =     -8.57201  eV     2   --> A''            
     e(  4 -  4) =     -8.51738  eV     1   --> A'             
     e(  5 -  5) =     -8.51146  eV     1   --> A''            
     e(  6 -  6) =     -5.93238  eV     1   --> A'             
     e(  7 -  7) =      3.64659  eV     1   --> A'             
     e(  8 -  9) =      5.31849  eV     2   --> A'             
     e(  8 -  9) =      5.31849  eV     2   --> A''            
     e( 10 - 10) =      8.47300  eV     1   --> A'             

 **************************************************************************

 **************************************************************************

                    xk=(   0.16667,  -0.09623,   0.13608  )

     Band symmetry, C_s (m)     point group:

     e(  1 -  1) =     -8.60800  eV     1   --> A'             
     e(  2 -  3) =     -8.57027  eV     2   --> A'             
     e(  2 -  3) =     -8.57027  eV     2   --> A''            
     e(  4 -  4) =     -8.51820  eV     1   --> A'             
     e(  5 -  5) =     -8.51094  eV     1   --> A''            
     e(  6 -  6) =     -5.85880  eV     1   --> A'             
     e(  7 -  7) =      3.37377  eV     1   --> A'             
     e(  8 -  9) =      5.18444  eV     2   --> A'             
     e(  8 -  9) =      5.18444  eV     2   --> A''            
     e( 10 - 10) =      8.53569  eV     1   --> A'             

 **************************************************************************

 **************************************************************************

                    xk=(   0.18333,  -0.10585,   0.14969  )

     Band symmetry, C_s (m)     point group:

     e(  1 -  1) =     -8.61269  eV     1   --> A'             
     e(  2 -  3) =     -8.56835  eV     2   --> A'             
     e(  2 -  3) =     -8.56835  eV     2   --> A''            
     e(  4 -  4) =     -8.51908  eV     1   --> A'             
     e(  5 -  5) =     -8.51035  eV     1   --> A''            
     e(  6 -  6) =     -5.77839  eV     1   --> A'             
     e(  7 -  7) =      3.10396  eV     1   --> A'             
     e(  8 -  9) =      5.05103  eV     2   --> A'             
     e(  8 -  9) =      5.05103  eV     2   --> A''            
     e( 10 - 10) =      8.50329  eV     1   --> A'             

 **************************************************************************

 **************************************************************************

                    xk=(   0.20000,  -0.11547,   0.16330  )

     Band symmetry, C_s (m)     point group:

     e(  1 -  1) =     -8.61750  eV     1   --> A'             
     e(  2 -  3) =     -8.56636  eV     2   --> A'             
     e(  2 -  3) =     -8.56636  eV     2   --> A''            
     e(  4 -  4) =     -8.52003  eV     1   --> A'             
     e(  5 -  5) =     -8.50977  eV     1   --> A''            
     e(  6 -  6) =     -5.69145  eV     1   --> A'             
     e(  7 -  7) =      2.83733  eV     1   --> A'             
     e(  8 -  9) =      4.91952  eV     2   --> A'             
     e(  8 -  9) =      4.91952  eV     2   --> A''            
     e( 10 - 10) =      8.42198  eV     1   --> A'             

 **************************************************************************

 **************************************************************************

                    xk=(   0.21667,  -0.12509,   0.17691  )

     Band symmetry, C_s (m)     point group:

     e(  1 -  1) =     -8.62236  eV     1   --> A'             
     e(  2 -  3) =     -8.56431  eV     2   --> A'             
     e(  2 -  3) =     -8.56431  eV     2   --> A''            
     e(  4 -  4) =     -8.52104  eV     1   --> A'             
     e(  5 -  5) =     -8.50916  eV     1   --> A''            
     e(  6 -  6) =     -5.59831  eV     1   --> A'             
     e(  7 -  7) =      2.57416  eV     1   --> A'             
     e(  8 -  9) =      4.79110  eV     2   --> A'             
     e(  8 -  9) =      4.79110  eV     2   --> A''            
     e( 10 - 10) =      8.32430  eV     1   --> A'             

 **************************************************************************

 **************************************************************************

                    xk=(   0.23333,  -0.13472,   0.19052  )

     Band symmetry, C_s (m)     point group:

     e(  1 -  1) =     -8.62719  eV     1   --> A'             
     e(  2 -  3) =     -8.56218  eV     2   --> A'             
     e(  2 -  3) =     -8.56218  eV     2   --> A''            
     e(  4 -  4) =     -8.52209  eV     1   --> A'             
     e(  5 -  5) =     -8.50854  eV     1   --> A''            
     e(  6 -  6) =     -5.49935  eV     1   --> A'             
     e(  7 -  7) =      2.31482  eV     1   --> A'             
     e(  8 -  9) =      4.66678  eV     2   --> A'             
     e(  8 -  9) =      4.66678  eV     2   --> A''            
     e( 10 - 10) =      8.22368  eV     1   --> A'             

 **************************************************************************

 **************************************************************************

                    xk=(   0.25000,  -0.14434,   0.20412  )

     Band symmetry, C_s (m)     point group:

     e(  1 -  1) =     -8.63195  eV     1   --> A'             
     e(  2 -  3) =     -8.56002  eV     2   --> A'             
     e(  2 -  3) =     -8.56002  eV     2   --> A''            
     e(  4 -  4) =     -8.52315  eV     1   --> A'             
     e(  5 -  5) =     -8.50791  eV     1   --> A''            
     e(  6 -  6) =     -5.39502  eV     1   --> A'             
     e(  7 -  7) =      2.05968  eV     1   --> A'             
     e(  8 -  9) =      4.54731  eV     2   --> A'             
     e(  8 -  9) =      4.54731  eV     2   --> A''            
     e( 10 - 10) =      8.12578  eV     1   --> A'             

 **************************************************************************

 **************************************************************************

                    xk=(   0.26667,  -0.15396,   0.21773  )

     Band symmetry, C_s (m)     point group:

     e(  1 -  1) =     -8.63660  eV     1   --> A'             
     e(  2 -  3) =     -8.55786  eV     2   --> A'             
     e(  2 -  3) =     -8.55786  eV     2   --> A''            
     e(  4 -  4) =     -8.52425  eV     1   --> A'             
     e(  5 -  5) =     -8.50728  eV     1   --> A''            
     e(  6 -  6) =     -5.28584  eV     1   --> A'             
     e(  7 -  7) =      1.80924  eV     1   --> A'             
     e(  8 -  9) =      4.43335  eV     2   --> A'             
     e(  8 -  9) =      4.43335  eV     2   --> A''            
     e( 10 - 10) =      8.03338  eV     1   --> A'             

 **************************************************************************

 **************************************************************************

                    xk=(   0.28333,  -0.16358,   0.23134  )

     Band symmetry, C_s (m)     point group:

     e(  1 -  1) =     -8.64110  eV     1   --> A'             
     e(  2 -  3) =     -8.55571  eV     2   --> A'             
     e(  2 -  3) =     -8.55571  eV     2   --> A''            
     e(  4 -  4) =     -8.52535  eV     1   --> A'             
     e(  5 -  5) =     -8.50666  eV     1   --> A''            
     e(  6 -  6) =     -5.17241  eV     1   --> A'             
     e(  7 -  7) =      1.56410  eV     1   --> A'             
     e(  8 -  9) =      4.32547  eV     2   --> A'             
     e(  8 -  9) =      4.32547  eV     2   --> A''            
     e( 10 - 10) =      7.94807  eV     1   --> A'             

 **************************************************************************

 **************************************************************************

                    xk=(   0.30000,  -0.17321,   0.24495  )

     Band symmetry, C_s (m)     point group:

     e(  1 -  1) =     -8.64545  eV     1   --> A'             
     e(  2 -  3) =     -8.55360  eV     2   --> A'             
     e(  2 -  3) =     -8.55360  eV     2   --> A''            
     e(  4 -  4) =     -8.52645  eV     1   --> A'             
     e(  5 -  5) =     -8.50608  eV     1   --> A''            
     e(  6 -  6) =     -5.05548  eV     1   --> A'             
     e(  7 -  7) =      1.32496  eV     1   --> A'             
     e(  8 -  9) =      4.22411  eV     2   --> A'             
     e(  8 -  9) =      4.22411  eV     2   --> A''            
     e( 10 - 10) =      7.87082  eV     1   --> A'             

 **************************************************************************

 **************************************************************************

                    xk=(   0.31667,  -0.18283,   0.25856  )

     Band symmetry, C_s (m)     point group:

     e(  1 -  1) =     -8.64953  eV     1   --> A'             
     e(  2 -  3) =     -8.55156  eV     2   --> A'             
     e(  2 -  3) =     -8.55156  eV     2   --> A''            
     e(  4 -  4) =     -8.52756  eV     1   --> A'             
     e(  5 -  5) =     -8.50549  eV     1   --> A''            
     e(  6 -  6) =     -4.93593  eV     1   --> A'             
     e(  7 -  7) =      1.09275  eV     1   --> A'             
     e(  8 -  9) =      4.12967  eV     2   --> A'             
     e(  8 -  9) =      4.12967  eV     2   --> A''            
     e( 10 - 10) =      7.80238  eV     1   --> A'             

 **************************************************************************

 **************************************************************************

                    xk=(   0.33333,  -0.19245,   0.27217  )

     Band symmetry, C_s (m)     point group:

     e(  1 -  1) =     -8.65333  eV     1   --> A'             
     e(  2 -  3) =     -8.54958  eV     2   --> A'             
     e(  2 -  3) =     -8.54958  eV     2   --> A''            
     e(  4 -  4) =     -8.52858  eV     1   --> A'             
     e(  5 -  5) =     -8.50493  eV     1   --> A''            
     e(  6 -  6) =     -4.81482  eV     1   --> A'             
     e(  7 -  7) =      0.86857  eV     1   --> A'             
     e(  8 -  9) =      4.04252  eV     2   --> A'             
     e(  8 -  9) =      4.04252  eV     2   --> A''            
     e( 10 - 10) =      7.74328  eV     1   --> A'             

 **************************************************************************

 **************************************************************************

                    xk=(   0.35000,  -0.20207,   0.28577  )

     Band symmetry, C_s (m)     point group:

     e(  1 -  1) =     -8.65686  eV     1   --> A'             
     e(  2 -  3) =     -8.54773  eV     2   --> A'             
     e(  2 -  3) =     -8.54773  eV     2   --> A''            
     e(  4 -  4) =     -8.52957  eV     1   --> A'             
     e(  5 -  5) =     -8.50440  eV     1   --> A''            
     e(  6 -  6) =     -4.69346  eV     1   --> A'             
     e(  7 -  7) =      0.65372  eV     1   --> A'             
     e(  8 -  9) =      3.96291  eV     2   --> A'             
     e(  8 -  9) =      3.96291  eV     2   --> A''            
     e( 10 - 10) =      7.69387  eV     1   --> A'             

 **************************************************************************

 **************************************************************************

                    xk=(   0.36667,  -0.21170,   0.29938  )

     Band symmetry, C_s (m)     point group:

     e(  1 -  1) =     -8.66008  eV     1   --> A'             
     e(  2 -  3) =     -8.54598  eV     2   --> A'             
     e(  2 -  3) =     -8.54598  eV     2   --> A''            
     e(  4 -  4) =     -8.53048  eV     1   --> A'             
     e(  5 -  5) =     -8.50390  eV     1   --> A''            
     e(  6 -  6) =     -4.57343  eV     1   --> A'             
     e(  7 -  7) =      0.44984  eV     1   --> A'             
     e(  8 -  9) =      3.89110  eV     2   --> A'             
     e(  8 -  9) =      3.89110  eV     2   --> A''            
     e( 10 - 10) =      7.65446  eV     1   --> A'             

 **************************************************************************

 **************************************************************************

                    xk=(   0.38333,  -0.22132,   0.31299  )

     Band symmetry, C_s (m)     point group:

     e(  1 -  1) =     -8.66298  eV     1   --> A'             
     e(  2 -  3) =     -8.54440  eV     2   --> A'             
     e(  2 -  3) =     -8.54440  eV     2   --> A''            
     e(  4 -  4) =     -8.53134  eV     1   --> A'             
     e(  5 -  5) =     -8.50348  eV     1   --> A''            
     e(  6 -  6) =     -4.45665  eV     1   --> A'             
     e(  7 -  7) =      0.25891  eV     1   --> A'             
     e(  8 -  9) =      3.82728  eV     2   --> A'             
     e(  8 -  9) =      3.82728  eV     2   --> A''            
     e( 10 - 10) =      7.62525  eV     1   --> A'             

 **************************************************************************

 **************************************************************************

                    xk=(   0.40000,  -0.23094,   0.32660  )

     Band symmetry, C_s (m)     point group:

     e(  1 -  1) =     -8.66552  eV     1   --> A'             
     e(  2 -  3) =     -8.54301  eV     2   --> A'             
     e(  2 -  3) =     -8.54301  eV     2   --> A''            
     e(  4 -  4) =     -8.53210  eV     1   --> A'             
     e(  5 -  5) =     -8.50310  eV     1   --> A''            
     e(  6 -  6) =     -4.34547  eV     1   --> A'             
     e(  7 -  7) =      0.08332  eV     1   --> A'             
     e(  8 -  9) =      3.77163  eV     2   --> A'             
     e(  8 -  9) =      3.77163  eV     2   --> A''            
     e( 10 - 10) =      7.60644  eV     1   --> A'             

 **************************************************************************

 **************************************************************************

                    xk=(   0.41667,  -0.24056,   0.34021  )

     Band symmetry, C_s (m)     point group:

     e(  1 -  1) =     -8.66769  eV     1   --> A'             
     e(  2 -  3) =     -8.54178  eV     2   --> A'             
     e(  2 -  3) =     -8.54178  eV     2   --> A''            
     e(  4 -  4) =     -8.53271  eV     1   --> A'             
     e(  5 -  5) =     -8.50275  eV     1   --> A''            
     e(  6 -  6) =     -4.24265  eV     1   --> A'             
     e(  7 -  7) =     -0.07411  eV     1   --> A'             
     e(  8 -  9) =      3.72432  eV     2   --> A'             
     e(  8 -  9) =      3.72432  eV     2   --> A''            
     e( 10 - 10) =      7.59813  eV     1   --> A'             

 **************************************************************************

 **************************************************************************

                    xk=(   0.43333,  -0.25019,   0.35382  )

     Band symmetry, C_s (m)     point group:

     e(  1 -  1) =     -8.66949  eV     1   --> A'             
     e(  2 -  3) =     -8.54075  eV     2   --> A'             
     e(  2 -  3) =     -8.54075  eV     2   --> A''            
     e(  4 -  4) =     -8.53327  eV     1   --> A'             
     e(  5 -  5) =     -8.50247  eV     1   --> A''            
     e(  6 -  6) =     -4.15137  eV     1   --> A'             
     e(  7 -  7) =     -0.21016  eV     1   --> A'             
     e(  8 -  9) =      3.68545  eV     2   --> A'             
     e(  8 -  9) =      3.68545  eV     2   --> A''            
     e( 10 - 10) =      7.60015  eV     1   --> A'             

 **************************************************************************

 **************************************************************************

                    xk=(   0.45000,  -0.25981,   0.36742  )

     Band symmetry, C_s (m)     point group:

     e(  1 -  1) =     -8.67087  eV     1   --> A'             
     e(  2 -  3) =     -8.53995  eV     2   --> A'             
     e(  2 -  3) =     -8.53995  eV     2   --> A''            
     e(  4 -  4) =     -8.53370  eV     1   --> A'             
     e(  5 -  5) =     -8.50223  eV     1   --> A''            
     e(  6 -  6) =     -4.07510  eV     1   --> A'             
     e(  7 -  7) =     -0.32129  eV     1   --> A'             
     e(  8 -  9) =      3.65512  eV     2   --> A'             
     e(  8 -  9) =      3.65512  eV     2   --> A''            
     e( 10 - 10) =      7.61233  eV     1   --> A'             

 **************************************************************************

 **************************************************************************

                    xk=(   0.46667,  -0.26943,   0.38103  )

     Band symmetry, C_s (m)     point group:

     e(  1 -  1) =     -8.67188  eV     1   --> A'             
     e(  2 -  3) =     -8.53936  eV     2   --> A'             
     e(  2 -  3) =     -8.53936  eV     2   --> A''            
     e(  4 -  4) =     -8.53402  eV     1   --> A'             
     e(  5 -  5) =     -8.50206  eV     1   --> A''            
     e(  6 -  6) =     -4.01737  eV     1   --> A'             
     e(  7 -  7) =     -0.40396  eV     1   --> A'             
     e(  8 -  9) =      3.63341  eV     2   --> A'             
     e(  8 -  9) =      3.63341  eV     2   --> A''            
     e( 10 - 10) =      7.63341  eV     1   --> A'             

 **************************************************************************

 **************************************************************************

                    xk=(   0.48333,  -0.27905,   0.39464  )

     Band symmetry, C_s (m)     point group:

     e(  1 -  1) =     -8.67252  eV     1   --> A'             
     e(  2 -  3) =     -8.53904  eV     2   --> A'             
     e(  2 -  3) =     -8.53904  eV     2   --> A''            
     e(  4 -  4) =     -8.53421  eV     1   --> A'             
     e(  5 -  5) =     -8.50197  eV     1   --> A''            
     e(  6 -  6) =     -3.98127  eV     1   --> A'             
     e(  7 -  7) =     -0.45503  eV     1   --> A'             
     e(  8 -  9) =      3.62035  eV     2   --> A'             
     e(  8 -  9) =      3.62035  eV     2   --> A''            
     e( 10 - 10) =      7.65941  eV     1   --> A'             

 **************************************************************************

 **************************************************************************

                    xk=(   0.50000,  -0.28868,   0.40825  )

     Band symmetry, C_s (m)     point group:

     e(  1 -  1) =     -8.67272  eV     1   --> A'             
     e(  2 -  3) =     -8.53891  eV     2   --> A'             
     e(  2 -  3) =     -8.53891  eV     2   --> A''            
     e(  4 -  4) =     -8.53426  eV     1   --> A'             
     e(  5 -  5) =     -8.50194  eV     1   --> A''            
     e(  6 -  6) =     -3.96898  eV     1   --> A'             
     e(  7 -  7) =     -0.47232  eV     1   --> A'             
     e(  8 -  9) =      3.61600  eV     2   --> A'             
     e(  8 -  9) =      3.61600  eV     2   --> A''            
     e( 10 - 10) =      7.67470  eV     1   --> A'             

 **************************************************************************

 **************************************************************************

                    xk=(   0.50000,  -0.27905,   0.41505  )

     point group C_1 (1)    
     there are  1 classes
     the character table:

       E    
A      1.00

     the symmetry operations in each class and the name of the first element:

     E        1
                                                                 

     Band symmetry, C_1 (1)     point group:

     e(  1 -  1) =     -8.67269  eV     1   --> A              
     e(  2 -  3) =     -8.53895  eV     2   -->   2 A              
     e(  4 -  4) =     -8.53422  eV     1   --> A              
     e(  5 -  5) =     -8.50196  eV     1   --> A              
     e(  6 -  6) =     -3.96885  eV     1   --> A              
     e(  7 -  7) =     -0.47191  eV     1   --> A              
     e(  8 -  8) =      3.61333  eV     1   --> A              
     e(  9 -  9) =      3.61388  eV     1   --> A              
     e( 10 - 10) =      7.67995  eV     1   --> A              

 **************************************************************************

 **************************************************************************

                    xk=(   0.50000,  -0.26943,   0.42186  )

     Band symmetry, C_1 (1)     point group:

     e(  1 -  1) =     -8.67262  eV     1   --> A              
     e(  2 -  3) =     -8.53908  eV     2   -->   2 A              
     e(  4 -  4) =     -8.53410  eV     1   --> A              
     e(  5 -  5) =     -8.50199  eV     1   --> A              
     e(  6 -  6) =     -3.96847  eV     1   --> A              
     e(  7 -  7) =     -0.47070  eV     1   --> A              
     e(  8 -  8) =      3.60538  eV     1   --> A              
     e(  9 -  9) =      3.60757  eV     1   --> A              
     e( 10 - 10) =      7.69562  eV     1   --> A              

 **************************************************************************

 **************************************************************************

                    xk=(   0.50000,  -0.25981,   0.42866  )

     Band symmetry, C_1 (1)     point group:

     e(  1 -  1) =     -8.67247  eV     1   --> A              
     e(  2 -  2) =     -8.53924  eV     1   --> A              
     e(  3 -  3) =     -8.53911  eV     1   --> A              
     e(  4 -  4) =     -8.53392  eV     1   --> A              
     e(  5 -  5) =     -8.50206  eV     1   --> A              
     e(  6 -  6) =     -3.96784  eV     1   --> A              
     e(  7 -  7) =     -0.46870  eV     1   --> A              
     e(  8 -  8) =      3.59231  eV     1   --> A              
     e(  9 -  9) =      3.59720  eV     1   --> A              
     e( 10 - 10) =      7.72165  eV     1   --> A              

 **************************************************************************

 **************************************************************************

                    xk=(   0.50000,  -0.25019,   0.43546  )

     Band symmetry, C_1 (1)     point group:

     e(  1 -  1) =     -8.67228  eV     1   --> A              
     e(  2 -  2) =     -8.53951  eV     1   --> A              
     e(  3 -  3) =     -8.53926  eV     1   --> A              
     e(  4 -  4) =     -8.53366  eV     1   --> A              
     e(  5 -  5) =     -8.50216  eV     1   --> A              
     e(  6 -  6) =     -3.96696  eV     1   --> A              
     e(  7 -  7) =     -0.46592  eV     1   --> A              
     e(  8 -  8) =      3.57438  eV     1   --> A              
     e(  9 -  9) =      3.58297  eV     1   --> A              
     e( 10 - 10) =      7.75778  eV     1   --> A              

 **************************************************************************

 **************************************************************************

                    xk=(   0.50000,  -0.24056,   0.44227  )

     Band symmetry, C_1 (1)     point group:

     e(  1 -  1) =     -8.67204  eV     1   --> A              
     e(  2 -  2) =     -8.53985  eV     1   --> A              
     e(  3 -  3) =     -8.53943  eV     1   --> A              
     e(  4 -  4) =     -8.53334  eV     1   --> A              
     e(  5 -  5) =     -8.50229  eV     1   --> A              
     e(  6 -  6) =     -3.96585  eV     1   --> A              
     e(  7 -  7) =     -0.46238  eV     1   --> A              
     e(  8 -  8) =      3.55193  eV     1   --> A              
     e(  9 -  9) =      3.56519  eV     1   --> A              
     e( 10 - 10) =      7.80375  eV     1   --> A              

 **************************************************************************

 **************************************************************************

                    xk=(   0.50000,  -0.23094,   0.44907  )

     Band symmetry, C_1 (1)     point group:

     e(  1 -  1) =     -8.67174  eV     1   --> A              
     e(  2 -  2) =     -8.54027  eV     1   --> A              
     e(  3 -  3) =     -8.53961  eV     1   --> A              
     e(  4 -  4) =     -8.53298  eV     1   --> A              
     e(  5 -  5) =     -8.50244  eV     1   --> A              
     e(  6 -  6) =     -3.96452  eV     1   --> A              
     e(  7 -  7) =     -0.45811  eV     1   --> A              
     e(  8 -  8) =      3.52538  eV     1   --> A              
     e(  9 -  9) =      3.54417  eV     1   --> A              
     e( 10 - 10) =      7.85921  eV     1   --> A              

 **************************************************************************

 **************************************************************************

                    xk=(   0.50000,  -0.22132,   0.45588  )

     Band symmetry, C_1 (1)     point group:

     e(  1 -  1) =     -8.67139  eV     1   --> A              
     e(  2 -  2) =     -8.54075  eV     1   --> A              
     e(  3 -  3) =     -8.53980  eV     1   --> A              
     e(  4 -  4) =     -8.53258  eV     1   --> A              
     e(  5 -  5) =     -8.50262  eV     1   --> A              
     e(  6 -  6) =     -3.96298  eV     1   --> A              
     e(  7 -  7) =     -0.45314  eV     1   --> A              
     e(  8 -  8) =      3.49518  eV     1   --> A              
     e(  9 -  9) =      3.52032  eV     1   --> A              
     e( 10 - 10) =      7.92377  eV     1   --> A              

 **************************************************************************

 **************************************************************************

                    xk=(   0.50000,  -0.21170,   0.46268  )

     Band symmetry, C_1 (1)     point group:

     e(  1 -  1) =     -8.67100  eV     1   --> A              
     e(  2 -  2) =     -8.54129  eV     1   --> A              
     e(  3 -  3) =     -8.53997  eV     1   --> A              
     e(  4 -  4) =     -8.53214  eV     1   --> A              
     e(  5 -  5) =     -8.50281  eV     1   --> A              
     e(  6 -  6) =     -3.96124  eV     1   --> A              
     e(  7 -  7) =     -0.44753  eV     1   --> A              
     e(  8 -  8) =      3.46185  eV     1   --> A              
     e(  9 -  9) =      3.49403  eV     1   --> A              
     e( 10 - 10) =      7.99703  eV     1   --> A              

 **************************************************************************

 **************************************************************************

                    xk=(   0.50000,  -0.20207,   0.46949  )

     Band symmetry, C_1 (1)     point group:

     e(  1 -  1) =     -8.67056  eV     1   --> A              
     e(  2 -  2) =     -8.54189  eV     1   --> A              
     e(  3 -  3) =     -8.54016  eV     1   --> A              
     e(  4 -  4) =     -8.53168  eV     1   --> A              
     e(  5 -  5) =     -8.50305  eV     1   --> A              
     e(  6 -  6) =     -3.95933  eV     1   --> A              
     e(  7 -  7) =     -0.44131  eV     1   --> A              
     e(  8 -  8) =      3.42589  eV     1   --> A              
     e(  9 -  9) =      3.46574  eV     1   --> A              
     e( 10 - 10) =      8.07854  eV     1   --> A              

 **************************************************************************

 **************************************************************************

                    xk=(   0.50000,  -0.19245,   0.47629  )

     Band symmetry, C_1 (1)     point group:

     e(  1 -  1) =     -8.67008  eV     1   --> A              
     e(  2 -  2) =     -8.54253  eV     1   --> A              
     e(  3 -  3) =     -8.54034  eV     1   --> A              
     e(  4 -  4) =     -8.53120  eV     1   --> A              
     e(  5 -  5) =     -8.50328  eV     1   --> A              
     e(  6 -  6) =     -3.95727  eV     1   --> A              
     e(  7 -  7) =     -0.43453  eV     1   --> A              
     e(  8 -  8) =      3.38782  eV     1   --> A              
     e(  9 -  9) =      3.43588  eV     1   --> A              
     e( 10 - 10) =      8.16790  eV     1   --> A              

 **************************************************************************

 **************************************************************************

                    xk=(   0.50000,  -0.18283,   0.48309  )

     Band symmetry, C_1 (1)     point group:

     e(  1 -  1) =     -8.66957  eV     1   --> A              
     e(  2 -  2) =     -8.54324  eV     1   --> A              
     e(  3 -  3) =     -8.54052  eV     1   --> A              
     e(  4 -  4) =     -8.53070  eV     1   --> A              
     e(  5 -  5) =     -8.50357  eV     1   --> A              
     e(  6 -  6) =     -3.95507  eV     1   --> A              
     e(  7 -  7) =     -0.42727  eV     1   --> A              
     e(  8 -  8) =      3.34817  eV     1   --> A              
     e(  9 -  9) =      3.40485  eV     1   --> A              
     e( 10 - 10) =      8.26462  eV     1   --> A              

 **************************************************************************

 **************************************************************************

                    xk=(   0.50000,  -0.17321,   0.48990  )

     Band symmetry, C_1 (1)     point group:

     e(  1 -  1) =     -8.66901  eV     1   --> A              
     e(  2 -  2) =     -8.54395  eV     1   --> A              
     e(  3 -  3) =     -8.54069  eV     1   --> A              
     e(  4 -  4) =     -8.53017  eV     1   --> A              
     e(  5 -  5) =     -8.50385  eV     1   --> A              
     e(  6 -  6) =     -3.95276  eV     1   --> A              
     e(  7 -  7) =     -0.41958  eV     1   --> A              
     e(  8 -  8) =      3.30743  eV     1   --> A              
     e(  9 -  9) =      3.37310  eV     1   --> A              
     e( 10 - 10) =      8.36836  eV     1   --> A              

 **************************************************************************

 **************************************************************************

                    xk=(   0.50000,  -0.16358,   0.49670  )

     Band symmetry, C_1 (1)     point group:

     e(  1 -  1) =     -8.66845  eV     1   --> A              
     e(  2 -  2) =     -8.54472  eV     1   --> A              
     e(  3 -  3) =     -8.54085  eV     1   --> A              
     e(  4 -  4) =     -8.52964  eV     1   --> A              
     e(  5 -  5) =     -8.50417  eV     1   --> A              
     e(  6 -  6) =     -3.95038  eV     1   --> A              
     e(  7 -  7) =     -0.41155  eV     1   --> A              
     e(  8 -  8) =      3.26608  eV     1   --> A              
     e(  9 -  9) =      3.34098  eV     1   --> A              
     e( 10 - 10) =      8.47862  eV     1   --> A              

 **************************************************************************

 **************************************************************************

                    xk=(   0.50000,  -0.15396,   0.50351  )

     Band symmetry, C_1 (1)     point group:

     e(  1 -  1) =     -8.66787  eV     1   --> A              
     e(  2 -  2) =     -8.54551  eV     1   --> A              
     e(  3 -  3) =     -8.54101  eV     1   --> A              
     e(  4 -  4) =     -8.52910  eV     1   --> A              
     e(  5 -  5) =     -8.50450  eV     1   --> A              
     e(  6 -  6) =     -3.94793  eV     1   --> A              
     e(  7 -  7) =     -0.40324  eV     1   --> A              
     e(  8 -  8) =      3.22459  eV     1   --> A              
     e(  9 -  9) =      3.30888  eV     1   --> A              
     e( 10 - 10) =      8.59505  eV     1   --> A              

 **************************************************************************

 **************************************************************************

                    xk=(   0.50000,  -0.14434,   0.51031  )

     Band symmetry, C_1 (1)     point group:

     e(  1 -  1) =     -8.66725  eV     1   --> A              
     e(  2 -  2) =     -8.54631  eV     1   --> A              
     e(  3 -  3) =     -8.54116  eV     1   --> A              
     e(  4 -  4) =     -8.52855  eV     1   --> A              
     e(  5 -  5) =     -8.50485  eV     1   --> A              
     e(  6 -  6) =     -3.94545  eV     1   --> A              
     e(  7 -  7) =     -0.39474  eV     1   --> A              
     e(  8 -  8) =      3.18340  eV     1   --> A              
     e(  9 -  9) =      3.27715  eV     1   --> A              
     e( 10 - 10) =      8.71733  eV     1   --> A              

 **************************************************************************

 **************************************************************************

                    xk=(   0.50000,  -0.13472,   0.51711  )

     Band symmetry, C_1 (1)     point group:

     e(  1 -  1) =     -8.66666  eV     1   --> A              
     e(  2 -  2) =     -8.54715  eV     1   --> A              
     e(  3 -  3) =     -8.54131  eV     1   --> A              
     e(  4 -  4) =     -8.52801  eV     1   --> A              
     e(  5 -  5) =     -8.50523  eV     1   --> A              
     e(  6 -  6) =     -3.94297  eV     1   --> A              
     e(  7 -  7) =     -0.38615  eV     1   --> A              
     e(  8 -  8) =      3.14290  eV     1   --> A              
     e(  9 -  9) =      3.24608  eV     1   --> A              
     e( 10 - 10) =      8.84501  eV     1   --> A              

 **************************************************************************

 **************************************************************************

                    xk=(   0.50000,  -0.12509,   0.52392  )

     Band symmetry, C_1 (1)     point group:

     e(  1 -  1) =     -8.66605  eV     1   --> A              
     e(  2 -  2) =     -8.54795  eV     1   --> A              
     e(  3 -  3) =     -8.54144  eV     1   --> A              
     e(  4 -  4) =     -8.52745  eV     1   --> A              
     e(  5 -  5) =     -8.50560  eV     1   --> A              
     e(  6 -  6) =     -3.94051  eV     1   --> A              
     e(  7 -  7) =     -0.37755  eV     1   --> A              
     e(  8 -  8) =      3.10350  eV     1   --> A              
     e(  9 -  9) =      3.21600  eV     1   --> A              
     e( 10 - 10) =      8.97783  eV     1   --> A              

 **************************************************************************

 **************************************************************************

                    xk=(   0.50000,  -0.11547,   0.53072  )

     Band symmetry, C_1 (1)     point group:

     e(  1 -  1) =     -8.66546  eV     1   --> A              
     e(  2 -  2) =     -8.54877  eV     1   --> A              
     e(  3 -  3) =     -8.54157  eV     1   --> A              
     e(  4 -  4) =     -8.52691  eV     1   --> A              
     e(  5 -  5) =     -8.50599  eV     1   --> A              
     e(  6 -  6) =     -3.93810  eV     1   --> A              
     e(  7 -  7) =     -0.36904  eV     1   --> A              
     e(  8 -  8) =      3.06553  eV     1   --> A              
     e(  9 -  9) =      3.18715  eV     1   --> A              
     e( 10 - 10) =      9.11542  eV     1   --> A              

 **************************************************************************

 **************************************************************************

                    xk=(   0.50000,  -0.10585,   0.53753  )

     Band symmetry, C_1 (1)     point group:

     e(  1 -  1) =     -8.66487  eV     1   --> A              
     e(  2 -  2) =     -8.54956  eV     1   --> A              
     e(  3 -  3) =     -8.54168  eV     1   --> A              
     e(  4 -  4) =     -8.52637  eV     1   --> A              
     e(  5 -  5) =     -8.50640  eV     1   --> A              
     e(  6 -  6) =     -3.93577  eV     1   --> A              
     e(  7 -  7) =     -0.36072  eV     1   --> A              
     e(  8 -  8) =      3.02935  eV     1   --> A              
     e(  9 -  9) =      3.15978  eV     1   --> A              
     e( 10 - 10) =      9.25750  eV     1   --> A              

 **************************************************************************

 **************************************************************************

                    xk=(   0.50000,  -0.09623,   0.54433  )

     Band symmetry, C_1 (1)     point group:

     e(  1 -  1) =     -8.66430  eV     1   --> A              
     e(  2 -  2) =     -8.55032  eV     1   --> A              
     e(  3 -  3) =     -8.54178  eV     1   --> A              
     e(  4 -  4) =     -8.52583  eV     1   --> A              
     e(  5 -  5) =     -8.50679  eV     1   --> A              
     e(  6 -  6) =     -3.93354  eV     1   --> A              
     e(  7 -  7) =     -0.35268  eV     1   --> A              
     e(  8 -  8) =      2.99525  eV     1   --> A              
     e(  9 -  9) =      3.13410  eV     1   --> A              
     e( 10 - 10) =      9.40374  eV     1   --> A              

 **************************************************************************

 **************************************************************************

                    xk=(   0.50000,  -0.08660,   0.55114  )

     Band symmetry, C_1 (1)     point group:

     e(  1 -  1) =     -8.66375  eV     1   --> A              
     e(  2 -  2) =     -8.55103  eV     1   --> A              
     e(  3 -  3) =     -8.54186  eV     1   --> A              
     e(  4 -  4) =     -8.52531  eV     1   --> A              
     e(  5 -  5) =     -8.50717  eV     1   --> A              
     e(  6 -  6) =     -3.93144  eV     1   --> A              
     e(  7 -  7) =     -0.34504  eV     1   --> A              
     e(  8 -  8) =      2.96352  eV     1   --> A              
     e(  9 -  9) =      3.11032  eV     1   --> A              
     e( 10 - 10) =      9.55381  eV     1   --> A              

 **************************************************************************

 **************************************************************************

                    xk=(   0.50000,  -0.07698,   0.55794  )

     Band symmetry, C_1 (1)     point group:

     e(  1 -  1) =     -8.66325  eV     1   --> A              
     e(  2 -  2) =     -8.55171  eV     1   --> A              
     e(  3 -  3) =     -8.54194  eV     1   --> A              
     e(  4 -  4) =     -8.52482  eV     1   --> A              
     e(  5 -  5) =     -8.50755  eV     1   --> A              
     e(  6 -  6) =     -3.92949  eV     1   --> A              
     e(  7 -  7) =     -0.33788  eV     1   --> A              
     e(  8 -  8) =      2.93441  eV     1   --> A              
     e(  9 -  9) =      3.08860  eV     1   --> A              
     e( 10 - 10) =      9.70732  eV     1   --> A              

 **************************************************************************

 **************************************************************************

                    xk=(   0.50000,  -0.06736,   0.56474  )

     Band symmetry, C_1 (1)     point group:

     e(  1 -  1) =     -8.66276  eV     1   --> A              
     e(  2 -  2) =     -8.55232  eV     1   --> A              
     e(  3 -  3) =     -8.54201  eV     1   --> A              
     e(  4 -  4) =     -8.52435  eV     1   --> A              
     e(  5 -  5) =     -8.50791  eV     1   --> A              
     e(  6 -  6) =     -3.92771  eV     1   --> A              
     e(  7 -  7) =     -0.33130  eV     1   --> A              
     e(  8 -  8) =      2.90816  eV     1   --> A              
     e(  9 -  9) =      3.06909  eV     1   --> A              
     e( 10 - 10) =      9.86389  eV     1   --> A              

 **************************************************************************

 **************************************************************************

                    xk=(   0.50000,  -0.05774,   0.57155  )

     Band symmetry, C_1 (1)     point group:

     e(  1 -  1) =     -8.66235  eV     1   --> A              
     e(  2 -  2) =     -8.55288  eV     1   --> A              
     e(  3 -  3) =     -8.54207  eV     1   --> A              
     e(  4 -  4) =     -8.52392  eV     1   --> A              
     e(  5 -  5) =     -8.50826  eV     1   --> A              
     e(  6 -  6) =     -3.92613  eV     1   --> A              
     e(  7 -  7) =     -0.32540  eV     1   --> A              
     e(  8 -  8) =      2.88498  eV     1   --> A              
     e(  9 -  9) =      3.05193  eV     1   --> A              
     e( 10 - 10) =     10.01474  eV     1   --> A              

 **************************************************************************

 **************************************************************************

                    xk=(   0.50000,  -0.04811,   0.57835  )

     Band symmetry, C_1 (1)     point group:

     e(  1 -  1) =     -8.66197  eV     1   --> A              
     e(  2 -  2) =     -8.55335  eV     1   --> A              
     e(  3 -  3) =     -8.54211  eV     1   --> A              
     e(  4 -  4) =     -8.52353  eV     1   --> A              
     e(  5 -  5) =     -8.50857  eV     1   --> A              
     e(  6 -  6) =     -3.92475  eV     1   --> A              
     e(  7 -  7) =     -0.32025  eV     1   --> A              
     e(  8 -  8) =      2.86505  eV     1   --> A              
     e(  9 -  9) =      3.03722  eV     1   --> A              
     e( 10 - 10) =     10.13989  eV     1   --> A              

 **************************************************************************

 **************************************************************************

                    xk=(   0.50000,  -0.03849,   0.58516  )

     Band symmetry, C_1 (1)     point group:

     e(  1 -  1) =     -8.66165  eV     1   --> A              
     e(  2 -  2) =     -8.55374  eV     1   --> A              
     e(  3 -  3) =     -8.54215  eV     1   --> A              
     e(  4 -  4) =     -8.52320  eV     1   --> A              
     e(  5 -  5) =     -8.50883  eV     1   --> A              
     e(  6 -  6) =     -3.92361  eV     1   --> A              
     e(  7 -  7) =     -0.31593  eV     1   --> A              
     e(  8 -  8) =      2.84852  eV     1   --> A              
     e(  9 -  9) =      3.02506  eV     1   --> A              
     e( 10 - 10) =     10.25562  eV     1   --> A              

 **************************************************************************

 **************************************************************************

                    xk=(   0.50000,  -0.02887,   0.59196  )

     Band symmetry, C_1 (1)     point group:

     e(  1 -  1) =     -8.66141  eV     1   --> A              
     e(  2 -  2) =     -8.55407  eV     1   --> A              
     e(  3 -  3) =     -8.54219  eV     1   --> A              
     e(  4 -  4) =     -8.52293  eV     1   --> A              
     e(  5 -  5) =     -8.50905  eV     1   --> A              
     e(  6 -  6) =     -3.92270  eV     1   --> A              
     e(  7 -  7) =     -0.31250  eV     1   --> A              
     e(  8 -  8) =      2.83553  eV     1   --> A              
     e(  9 -  9) =      3.01553  eV     1   --> A              
     e( 10 - 10) =     10.35705  eV     1   --> A              

 **************************************************************************

 **************************************************************************

                    xk=(   0.50000,  -0.01925,   0.59876  )

     Band symmetry, C_1 (1)     point group:

     e(  1 -  1) =     -8.66123  eV     1   --> A              
     e(  2 -  2) =     -8.55430  eV     1   --> A              
     e(  3 -  3) =     -8.54222  eV     1   --> A              
     e(  4 -  4) =     -8.52274  eV     1   --> A              
     e(  5 -  5) =     -8.50921  eV     1   --> A              
     e(  6 -  6) =     -3.92205  eV     1   --> A              
     e(  7 -  7) =     -0.31001  eV     1   --> A              
     e(  8 -  8) =      2.82617  eV     1   --> A              
     e(  9 -  9) =      3.00868  eV     1   --> A              
     e( 10 - 10) =     10.43777  eV     1   --> A              

 **************************************************************************

 **************************************************************************

                    xk=(   0.50000,  -0.00962,   0.60557  )

     Band symmetry, C_1 (1)     point group:

     e(  1 -  1) =     -8.66113  eV     1   --> A              
     e(  2 -  2) =     -8.55444  eV     1   --> A              
     e(  3 -  3) =     -8.54223  eV     1   --> A              
     e(  4 -  4) =     -8.52262  eV     1   --> A              
     e(  5 -  5) =     -8.50931  eV     1   --> A              
     e(  6 -  6) =     -3.92166  eV     1   --> A              
     e(  7 -  7) =     -0.30850  eV     1   --> A              
     e(  8 -  8) =      2.82053  eV     1   --> A              
     e(  9 -  9) =      3.00455  eV     1   --> A              
     e( 10 - 10) =     10.49052  eV     1   --> A              

 **************************************************************************

 **************************************************************************

                    xk=(   0.50000,   0.00000,   0.61237  )

     Band symmetry, C_1 (1)     point group:

     e(  1 -  1) =     -8.66110  eV     1   --> A              
     e(  2 -  2) =     -8.55450  eV     1   --> A              
     e(  3 -  3) =     -8.54224  eV     1   --> A              
     e(  4 -  4) =     -8.52258  eV     1   --> A              
     e(  5 -  5) =     -8.50937  eV     1   --> A              
     e(  6 -  6) =     -3.92153  eV     1   --> A              
     e(  7 -  7) =     -0.30800  eV     1   --> A              
     e(  8 -  8) =      2.81864  eV     1   --> A              
     e(  9 -  9) =      3.00317  eV     1   --> A              
     e( 10 - 10) =     10.50894  eV     1   --> A              

 **************************************************************************

 **************************************************************************

                    xk=(   0.49583,   0.00722,   0.61196  )

     Band symmetry, C_1 (1)     point group:

     e(  1 -  1) =     -8.66110  eV     1   --> A              
     e(  2 -  2) =     -8.55449  eV     1   --> A              
     e(  3 -  3) =     -8.54224  eV     1   --> A              
     e(  4 -  4) =     -8.52258  eV     1   --> A              
     e(  5 -  5) =     -8.50936  eV     1   --> A              
     e(  6 -  6) =     -3.92190  eV     1   --> A              
     e(  7 -  7) =     -0.30781  eV     1   --> A              
     e(  8 -  8) =      2.81584  eV     1   --> A              
     e(  9 -  9) =      3.00763  eV     1   --> A              
     e( 10 - 10) =     10.49888  eV     1   --> A              

 **************************************************************************

 **************************************************************************

                    xk=(   0.49167,   0.01443,   0.61156  )

     Band symmetry, C_1 (1)     point group:

     e(  1 -  1) =     -8.66110  eV     1   --> A              
     e(  2 -  2) =     -8.55446  eV     1   --> A              
     e(  3 -  3) =     -8.54225  eV     1   --> A              
     e(  4 -  4) =     -8.52260  eV     1   --> A              
     e(  5 -  5) =     -8.50933  eV     1   --> A              
     e(  6 -  6) =     -3.92299  eV     1   --> A              
     e(  7 -  7) =     -0.30731  eV     1   --> A              
     e(  8 -  8) =      2.80768  eV     1   --> A              
     e(  9 -  9) =      3.02075  eV     1   --> A              
     e( 10 - 10) =     10.46434  eV     1   --> A              

 **************************************************************************

 **************************************************************************

                    xk=(   0.48750,   0.02165,   0.61115  )

     Band symmetry, C_1 (1)     point group:

     e(  1 -  1) =     -8.66110  eV     1   --> A              
     e(  2 -  2) =     -8.55442  eV     1   --> A              
     e(  3 -  3) =     -8.54226  eV     1   --> A              
     e(  4 -  4) =     -8.52261  eV     1   --> A              
     e(  5 -  5) =     -8.50928  eV     1   --> A              
     e(  6 -  6) =     -3.92472  eV     1   --> A              
     e(  7 -  7) =     -0.30657  eV     1   --> A              
     e(  8 -  8) =      2.79533  eV     1   --> A              
     e(  9 -  9) =      3.04131  eV     1   --> A              
     e( 10 - 10) =     10.40242  eV     1   --> A              

 **************************************************************************

 **************************************************************************

                    xk=(   0.48333,   0.02887,   0.61074  )

     Band symmetry, C_1 (1)     point group:

     e(  1 -  1) =     -8.66111  eV     1   --> A              
     e(  2 -  2) =     -8.55437  eV     1   --> A              
     e(  3 -  3) =     -8.54229  eV     1   --> A              
     e(  4 -  4) =     -8.52265  eV     1   --> A              
     e(  5 -  5) =     -8.50924  eV     1   --> A              
     e(  6 -  6) =     -3.92702  eV     1   --> A              
     e(  7 -  7) =     -0.30564  eV     1   --> A              
     e(  8 -  8) =      2.78020  eV     1   --> A              
     e(  9 -  9) =      3.06779  eV     1   --> A              
     e( 10 - 10) =     10.31722  eV     1   --> A              

 **************************************************************************

 **************************************************************************

                    xk=(   0.47917,   0.03608,   0.61033  )

     Band symmetry, C_1 (1)     point group:

     e(  1 -  1) =     -8.66112  eV     1   --> A              
     e(  2 -  2) =     -8.55431  eV     1   --> A              
     e(  3 -  3) =     -8.54234  eV     1   --> A              
     e(  4 -  4) =     -8.52270  eV     1   --> A              
     e(  5 -  5) =     -8.50918  eV     1   --> A              
     e(  6 -  6) =     -3.92984  eV     1   --> A              
     e(  7 -  7) =     -0.30459  eV     1   --> A              
     e(  8 -  8) =      2.76347  eV     1   --> A              
     e(  9 -  9) =      3.09894  eV     1   --> A              
     e( 10 - 10) =     10.21601  eV     1   --> A              

 **************************************************************************

 **************************************************************************

                    xk=(   0.47500,   0.04330,   0.60992  )

     Band symmetry, C_1 (1)     point group:

     e(  1 -  1) =     -8.66114  eV     1   --> A              
     e(  2 -  2) =     -8.55423  eV     1   --> A              
     e(  3 -  3) =     -8.54240  eV     1   --> A              
     e(  4 -  4) =     -8.52276  eV     1   --> A              
     e(  5 -  5) =     -8.50912  eV     1   --> A              
     e(  6 -  6) =     -3.93310  eV     1   --> A              
     e(  7 -  7) =     -0.30347  eV     1   --> A              
     e(  8 -  8) =      2.74593  eV     1   --> A              
     e(  9 -  9) =      3.13387  eV     1   --> A              
     e( 10 - 10) =     10.10495  eV     1   --> A              

 **************************************************************************

 **************************************************************************

                    xk=(   0.47083,   0.05052,   0.60951  )

     Band symmetry, C_1 (1)     point group:

     e(  1 -  1) =     -8.66117  eV     1   --> A              
     e(  2 -  2) =     -8.55414  eV     1   --> A              
     e(  3 -  3) =     -8.54246  eV     1   --> A              
     e(  4 -  4) =     -8.52284  eV     1   --> A              
     e(  5 -  5) =     -8.50905  eV     1   --> A              
     e(  6 -  6) =     -3.93674  eV     1   --> A              
     e(  7 -  7) =     -0.30230  eV     1   --> A              
     e(  8 -  8) =      2.72808  eV     1   --> A              
     e(  9 -  9) =      3.17193  eV     1   --> A              
     e( 10 - 10) =      9.98820  eV     1   --> A              

 **************************************************************************

 **************************************************************************

                    xk=(   0.46667,   0.05774,   0.60911  )

     Band symmetry, C_1 (1)     point group:

     e(  1 -  1) =     -8.66121  eV     1   --> A              
     e(  2 -  2) =     -8.55404  eV     1   --> A              
     e(  3 -  3) =     -8.54254  eV     1   --> A              
     e(  4 -  4) =     -8.52292  eV     1   --> A              
     e(  5 -  5) =     -8.50898  eV     1   --> A              
     e(  6 -  6) =     -3.94070  eV     1   --> A              
     e(  7 -  7) =     -0.30114  eV     1   --> A              
     e(  8 -  8) =      2.71027  eV     1   --> A              
     e(  9 -  9) =      3.21265  eV     1   --> A              
     e( 10 - 10) =      9.86848  eV     1   --> A              

 **************************************************************************

 **************************************************************************

                    xk=(   0.46250,   0.06495,   0.60870  )

     Band symmetry, C_1 (1)     point group:

     e(  1 -  1) =     -8.66124  eV     1   --> A              
     e(  2 -  2) =     -8.55392  eV     1   --> A              
     e(  3 -  3) =     -8.54263  eV     1   --> A              
     e(  4 -  4) =     -8.52300  eV     1   --> A              
     e(  5 -  5) =     -8.50890  eV     1   --> A              
     e(  6 -  6) =     -3.94493  eV     1   --> A              
     e(  7 -  7) =     -0.30000  eV     1   --> A              
     e(  8 -  8) =      2.69270  eV     1   --> A              
     e(  9 -  9) =      3.25564  eV     1   --> A              
     e( 10 - 10) =      9.74761  eV     1   --> A              

 **************************************************************************

 **************************************************************************

                    xk=(   0.45833,   0.07217,   0.60829  )

     Band symmetry, C_1 (1)     point group:

     e(  1 -  1) =     -8.66127  eV     1   --> A              
     e(  2 -  2) =     -8.55379  eV     1   --> A              
     e(  3 -  3) =     -8.54273  eV     1   --> A              
     e(  4 -  4) =     -8.52308  eV     1   --> A              
     e(  5 -  5) =     -8.50881  eV     1   --> A              
     e(  6 -  6) =     -3.94935  eV     1   --> A              
     e(  7 -  7) =     -0.29890  eV     1   --> A              
     e(  8 -  8) =      2.67554  eV     1   --> A              
     e(  9 -  9) =      3.30056  eV     1   --> A              
     e( 10 - 10) =      9.62683  eV     1   --> A              

 **************************************************************************

 **************************************************************************

                    xk=(   0.45417,   0.07939,   0.60788  )

     Band symmetry, C_1 (1)     point group:

     e(  1 -  1) =     -8.66131  eV     1   --> A              
     e(  2 -  2) =     -8.55364  eV     1   --> A              
     e(  3 -  3) =     -8.54283  eV     1   --> A              
     e(  4 -  4) =     -8.52317  eV     1   --> A              
     e(  5 -  5) =     -8.50872  eV     1   --> A              
     e(  6 -  6) =     -3.95392  eV     1   --> A              
     e(  7 -  7) =     -0.29786  eV     1   --> A              
     e(  8 -  8) =      2.65889  eV     1   --> A              
     e(  9 -  9) =      3.34709  eV     1   --> A              
     e( 10 - 10) =      9.50707  eV     1   --> A              

 **************************************************************************

 **************************************************************************

                    xk=(   0.45000,   0.08660,   0.60747  )

     Band symmetry, C_1 (1)     point group:

     e(  1 -  1) =     -8.66135  eV     1   --> A              
     e(  2 -  2) =     -8.55348  eV     1   --> A              
     e(  3 -  3) =     -8.54295  eV     1   --> A              
     e(  4 -  4) =     -8.52326  eV     1   --> A              
     e(  5 -  5) =     -8.50863  eV     1   --> A              
     e(  6 -  6) =     -3.95859  eV     1   --> A              
     e(  7 -  7) =     -0.29689  eV     1   --> A              
     e(  8 -  8) =      2.64282  eV     1   --> A              
     e(  9 -  9) =      3.39492  eV     1   --> A              
     e( 10 - 10) =      9.38905  eV     1   --> A              

 **************************************************************************

 **************************************************************************

                    xk=(   0.44583,   0.09382,   0.60707  )

     Band symmetry, C_1 (1)     point group:

     e(  1 -  1) =     -8.66138  eV     1   --> A              
     e(  2 -  2) =     -8.55330  eV     1   --> A              
     e(  3 -  3) =     -8.54306  eV     1   --> A              
     e(  4 -  4) =     -8.52336  eV     1   --> A              
     e(  5 -  5) =     -8.50853  eV     1   --> A              
     e(  6 -  6) =     -3.96331  eV     1   --> A              
     e(  7 -  7) =     -0.29599  eV     1   --> A              
     e(  8 -  8) =      2.62740  eV     1   --> A              
     e(  9 -  9) =      3.44373  eV     1   --> A              
     e( 10 - 10) =      9.27341  eV     1   --> A              

 **************************************************************************

 **************************************************************************

                    xk=(   0.44167,   0.10104,   0.60666  )

     Band symmetry, C_1 (1)     point group:

     e(  1 -  1) =     -8.66143  eV     1   --> A              
     e(  2 -  2) =     -8.55313  eV     1   --> A              
     e(  3 -  3) =     -8.54318  eV     1   --> A              
     e(  4 -  4) =     -8.52345  eV     1   --> A              
     e(  5 -  5) =     -8.50844  eV     1   --> A              
     e(  6 -  6) =     -3.96803  eV     1   --> A              
     e(  7 -  7) =     -0.29517  eV     1   --> A              
     e(  8 -  8) =      2.61267  eV     1   --> A              
     e(  9 -  9) =      3.49320  eV     1   --> A              
     e( 10 - 10) =      9.16064  eV     1   --> A              

 **************************************************************************

 **************************************************************************

                    xk=(   0.43750,   0.10825,   0.60625  )

     Band symmetry, C_1 (1)     point group:

     e(  1 -  1) =     -8.66148  eV     1   --> A              
     e(  2 -  2) =     -8.55294  eV     1   --> A              
     e(  3 -  3) =     -8.54331  eV     1   --> A              
     e(  4 -  4) =     -8.52354  eV     1   --> A              
     e(  5 -  5) =     -8.50834  eV     1   --> A              
     e(  6 -  6) =     -3.97271  eV     1   --> A              
     e(  7 -  7) =     -0.29443  eV     1   --> A              
     e(  8 -  8) =      2.59867  eV     1   --> A              
     e(  9 -  9) =      3.54297  eV     1   --> A              
     e( 10 - 10) =      9.05127  eV     1   --> A              

 **************************************************************************

 **************************************************************************

                    xk=(   0.43333,   0.11547,   0.60584  )

     Band symmetry, C_1 (1)     point group:

     e(  1 -  1) =     -8.66152  eV     1   --> A              
     e(  2 -  2) =     -8.55275  eV     1   --> A              
     e(  3 -  3) =     -8.54345  eV     1   --> A              
     e(  4 -  4) =     -8.52363  eV     1   --> A              
     e(  5 -  5) =     -8.50825  eV     1   --> A              
     e(  6 -  6) =     -3.97730  eV     1   --> A              
     e(  7 -  7) =     -0.29375  eV     1   --> A              
     e(  8 -  8) =      2.58543  eV     1   --> A              
     e(  9 -  9) =      3.59269  eV     1   --> A              
     e( 10 - 10) =      8.94575  eV     1   --> A              

 **************************************************************************

 **************************************************************************

                    xk=(   0.42917,   0.12269,   0.60543  )

     Band symmetry, C_1 (1)     point group:

     e(  1 -  1) =     -8.66155  eV     1   --> A              
     e(  2 -  2) =     -8.55255  eV     1   --> A              
     e(  3 -  3) =     -8.54358  eV     1   --> A              
     e(  4 -  4) =     -8.52372  eV     1   --> A              
     e(  5 -  5) =     -8.50815  eV     1   --> A              
     e(  6 -  6) =     -3.98177  eV     1   --> A              
     e(  7 -  7) =     -0.29313  eV     1   --> A              
     e(  8 -  8) =      2.57298  eV     1   --> A              
     e(  9 -  9) =      3.64198  eV     1   --> A              
     e( 10 - 10) =      8.84459  eV     1   --> A              

 **************************************************************************

 **************************************************************************

                    xk=(   0.42500,   0.12990,   0.60502  )

     Band symmetry, C_1 (1)     point group:

     e(  1 -  1) =     -8.66159  eV     1   --> A              
     e(  2 -  2) =     -8.55235  eV     1   --> A              
     e(  3 -  3) =     -8.54373  eV     1   --> A              
     e(  4 -  4) =     -8.52380  eV     1   --> A              
     e(  5 -  5) =     -8.50808  eV     1   --> A              
     e(  6 -  6) =     -3.98609  eV     1   --> A              
     e(  7 -  7) =     -0.29257  eV     1   --> A              
     e(  8 -  8) =      2.56132  eV     1   --> A              
     e(  9 -  9) =      3.69042  eV     1   --> A              
     e( 10 - 10) =      8.74816  eV     1   --> A              

 **************************************************************************

 **************************************************************************

                    xk=(   0.42083,   0.13712,   0.60462  )

     Band symmetry, C_1 (1)     point group:

     e(  1 -  1) =     -8.66163  eV     1   --> A              
     e(  2 -  2) =     -8.55216  eV     1   --> A              
     e(  3 -  3) =     -8.54388  eV     1   --> A              
     e(  4 -  4) =     -8.52388  eV     1   --> A              
     e(  5 -  5) =     -8.50800  eV     1   --> A              
     e(  6 -  6) =     -3.99021  eV     1   --> A              
     e(  7 -  7) =     -0.29206  eV     1   --> A              
     e(  8 -  8) =      2.55049  eV     1   --> A              
     e(  9 -  9) =      3.73759  eV     1   --> A              
     e( 10 - 10) =      8.65697  eV     1   --> A              

 **************************************************************************

 **************************************************************************

                    xk=(   0.41667,   0.14434,   0.60421  )

     Band symmetry, C_1 (1)     point group:

     e(  1 -  1) =     -8.66167  eV     1   --> A              
     e(  2 -  2) =     -8.55196  eV     1   --> A              
     e(  3 -  3) =     -8.54403  eV     1   --> A              
     e(  4 -  4) =     -8.52396  eV     1   --> A              
     e(  5 -  5) =     -8.50792  eV     1   --> A              
     e(  6 -  6) =     -3.99412  eV     1   --> A              
     e(  7 -  7) =     -0.29158  eV     1   --> A              
     e(  8 -  8) =      2.54049  eV     1   --> A              
     e(  9 -  9) =      3.78303  eV     1   --> A              
     e( 10 - 10) =      8.57150  eV     1   --> A              

 **************************************************************************

 **************************************************************************

                    xk=(   0.41250,   0.15155,   0.60380  )

     Band symmetry, C_1 (1)     point group:

     e(  1 -  1) =     -8.66171  eV     1   --> A              
     e(  2 -  2) =     -8.55177  eV     1   --> A              
     e(  3 -  3) =     -8.54418  eV     1   --> A              
     e(  4 -  4) =     -8.52403  eV     1   --> A              
     e(  5 -  5) =     -8.50786  eV     1   --> A              
     e(  6 -  6) =     -3.99778  eV     1   --> A              
     e(  7 -  7) =     -0.29113  eV     1   --> A              
     e(  8 -  8) =      2.53133  eV     1   --> A              
     e(  9 -  9) =      3.82628  eV     1   --> A              
     e( 10 - 10) =      8.49218  eV     1   --> A              

 **************************************************************************

 **************************************************************************

                    xk=(   0.40833,   0.15877,   0.60339  )

     Band symmetry, C_1 (1)     point group:

     e(  1 -  1) =     -8.66175  eV     1   --> A              
     e(  2 -  2) =     -8.55160  eV     1   --> A              
     e(  3 -  3) =     -8.54433  eV     1   --> A              
     e(  4 -  4) =     -8.52408  eV     1   --> A              
     e(  5 -  5) =     -8.50779  eV     1   --> A              
     e(  6 -  6) =     -4.00117  eV     1   --> A              
     e(  7 -  7) =     -0.29069  eV     1   --> A              
     e(  8 -  8) =      2.52303  eV     1   --> A              
     e(  9 -  9) =      3.86686  eV     1   --> A              
     e( 10 - 10) =      8.41954  eV     1   --> A              

 **************************************************************************

 **************************************************************************

                    xk=(   0.40417,   0.16599,   0.60298  )

     Band symmetry, C_1 (1)     point group:

     e(  1 -  1) =     -8.66177  eV     1   --> A              
     e(  2 -  2) =     -8.55142  eV     1   --> A              
     e(  3 -  3) =     -8.54447  eV     1   --> A              
     e(  4 -  4) =     -8.52413  eV     1   --> A              
     e(  5 -  5) =     -8.50774  eV     1   --> A              
     e(  6 -  6) =     -4.00426  eV     1   --> A              
     e(  7 -  7) =     -0.29027  eV     1   --> A              
     e(  8 -  8) =      2.51560  eV     1   --> A              
     e(  9 -  9) =      3.90427  eV     1   --> A              
     e( 10 - 10) =      8.35411  eV     1   --> A              

 **************************************************************************

 **************************************************************************

                    xk=(   0.40000,   0.17321,   0.60257  )

     Band symmetry, C_1 (1)     point group:

     e(  1 -  1) =     -8.66179  eV     1   --> A              
     e(  2 -  2) =     -8.55127  eV     1   --> A              
     e(  3 -  3) =     -8.54461  eV     1   --> A              
     e(  4 -  4) =     -8.52418  eV     1   --> A              
     e(  5 -  5) =     -8.50769  eV     1   --> A              
     e(  6 -  6) =     -4.00703  eV     1   --> A              
     e(  7 -  7) =     -0.28984  eV     1   --> A              
     e(  8 -  8) =      2.50904  eV     1   --> A              
     e(  9 -  9) =      3.93805  eV     1   --> A              
     e( 10 - 10) =      8.29633  eV     1   --> A              

[...]
     e(  6 -  6) =     -4.06115  eV     1   --> A              
     e(  7 -  7) =     -0.18495  eV     1   --> A              
     e(  8 -  8) =      2.55068  eV     1   --> A              
     e(  9 -  9) =      3.65555  eV     1   --> A              
     e( 10 - 10) =      9.57873  eV     1   --> A              

 **************************************************************************

 **************************************************************************

                    xk=(   0.41667,   0.04811,   0.53617  )

     Band symmetry, C_1 (1)     point group:

     e(  1 -  1) =     -8.65822  eV     1   --> A              
     e(  2 -  2) =     -8.55592  eV     1   --> A              
     e(  3 -  3) =     -8.54485  eV     1   --> A              
     e(  4 -  4) =     -8.52123  eV     1   --> A              
     e(  5 -  5) =     -8.50983  eV     1   --> A              
     e(  6 -  6) =     -4.06091  eV     1   --> A              
     e(  7 -  7) =     -0.18085  eV     1   --> A              
     e(  8 -  8) =      2.58703  eV     1   --> A              
     e(  9 -  9) =      3.59040  eV     1   --> A              
     e( 10 - 10) =      9.80168  eV     1   --> A              

 **************************************************************************

 **************************************************************************

                    xk=(   0.42083,   0.03127,   0.52977  )

     Band symmetry, C_1 (1)     point group:

     e(  1 -  1) =     -8.65848  eV     1   --> A              
     e(  2 -  2) =     -8.55573  eV     1   --> A              
     e(  3 -  3) =     -8.54460  eV     1   --> A              
     e(  4 -  4) =     -8.52157  eV     1   --> A              
     e(  5 -  5) =     -8.50957  eV     1   --> A              
     e(  6 -  6) =     -4.05963  eV     1   --> A              
     e(  7 -  7) =     -0.17965  eV     1   --> A              
     e(  8 -  8) =      2.62867  eV     1   --> A              
     e(  9 -  9) =      3.53064  eV     1   --> A              
     e( 10 - 10) =      9.98336  eV     1   --> A              

 **************************************************************************

 **************************************************************************

                    xk=(   0.42500,   0.01443,   0.52337  )

     Band symmetry, C_1 (1)     point group:

     e(  1 -  1) =     -8.65890  eV     1   --> A              
     e(  2 -  2) =     -8.55535  eV     1   --> A              
     e(  3 -  3) =     -8.54433  eV     1   --> A              
     e(  4 -  4) =     -8.52205  eV     1   --> A              
     e(  5 -  5) =     -8.50923  eV     1   --> A              
     e(  6 -  6) =     -4.05736  eV     1   --> A              
     e(  7 -  7) =     -0.18165  eV     1   --> A              
     e(  8 -  8) =      2.67531  eV     1   --> A              
     e(  9 -  9) =      3.47782  eV     1   --> A              
     e( 10 - 10) =     10.07243  eV     1   --> A              

 **************************************************************************

 **************************************************************************

                    xk=(   0.42917,  -0.00241,   0.51698  )

     Band symmetry, C_1 (1)     point group:

     e(  1 -  1) =     -8.65947  eV     1   --> A              
     e(  2 -  2) =     -8.55477  eV     1   --> A              
     e(  3 -  3) =     -8.54404  eV     1   --> A              
     e(  4 -  4) =     -8.52266  eV     1   --> A              
     e(  5 -  5) =     -8.50879  eV     1   --> A              
     e(  6 -  6) =     -4.05415  eV     1   --> A              
     e(  7 -  7) =     -0.18706  eV     1   --> A              
     e(  8 -  8) =      2.72662  eV     1   --> A              
     e(  9 -  9) =      3.43313  eV     1   --> A              
     e( 10 - 10) =     10.03218  eV     1   --> A              

 **************************************************************************

 **************************************************************************

                    xk=(   0.43333,  -0.01925,   0.51058  )

     Band symmetry, C_1 (1)     point group:

     e(  1 -  1) =     -8.66018  eV     1   --> A              
     e(  2 -  2) =     -8.55399  eV     1   --> A              
     e(  3 -  3) =     -8.54374  eV     1   --> A              
     e(  4 -  4) =     -8.52336  eV     1   --> A              
     e(  5 -  5) =     -8.50828  eV     1   --> A              
     e(  6 -  6) =     -4.05007  eV     1   --> A              
     e(  7 -  7) =     -0.19595  eV     1   --> A              
     e(  8 -  8) =      2.78223  eV     1   --> A              
     e(  9 -  9) =      3.39739  eV     1   --> A              
     e( 10 - 10) =      9.88997  eV     1   --> A              

 **************************************************************************

 **************************************************************************

                    xk=(   0.43750,  -0.03608,   0.50419  )

     Band symmetry, C_1 (1)     point group:

     e(  1 -  1) =     -8.66100  eV     1   --> A              
     e(  2 -  2) =     -8.55304  eV     1   --> A              
     e(  3 -  3) =     -8.54343  eV     1   --> A              
     e(  4 -  4) =     -8.52413  eV     1   --> A              
     e(  5 -  5) =     -8.50774  eV     1   --> A              
     e(  6 -  6) =     -4.04523  eV     1   --> A              
     e(  7 -  7) =     -0.20827  eV     1   --> A              
     e(  8 -  8) =      2.84168  eV     1   --> A              
     e(  9 -  9) =      3.37108  eV     1   --> A              
     e( 10 - 10) =      9.69645  eV     1   --> A              

 **************************************************************************

 **************************************************************************

                    xk=(   0.44167,  -0.05292,   0.49779  )

     Band symmetry, C_1 (1)     point group:

     e(  1 -  1) =     -8.66194  eV     1   --> A              
     e(  2 -  2) =     -8.55196  eV     1   --> A              
     e(  3 -  3) =     -8.54312  eV     1   --> A              
     e(  4 -  4) =     -8.52495  eV     1   --> A              
     e(  5 -  5) =     -8.50716  eV     1   --> A              
     e(  6 -  6) =     -4.03972  eV     1   --> A              
     e(  7 -  7) =     -0.22384  eV     1   --> A              
     e(  8 -  8) =      2.90445  eV     1   --> A              
     e(  9 -  9) =      3.35436  eV     1   --> A              
     e( 10 - 10) =      9.48490  eV     1   --> A              

 **************************************************************************

 **************************************************************************

                    xk=(   0.44583,  -0.06976,   0.49139  )

     Band symmetry, C_1 (1)     point group:

     e(  1 -  1) =     -8.66296  eV     1   --> A              
     e(  2 -  2) =     -8.55078  eV     1   --> A              
     e(  3 -  3) =     -8.54280  eV     1   --> A              
     e(  4 -  4) =     -8.52582  eV     1   --> A              
     e(  5 -  5) =     -8.50657  eV     1   --> A              
     e(  6 -  6) =     -4.03365  eV     1   --> A              
     e(  7 -  7) =     -0.24230  eV     1   --> A              
     e(  8 -  8) =      2.96994  eV     1   --> A              
     e(  9 -  9) =      3.34707  eV     1   --> A              
     e( 10 - 10) =      9.27106  eV     1   --> A              

 **************************************************************************

 **************************************************************************

                    xk=(   0.45000,  -0.08660,   0.48500  )

     Band symmetry, C_1 (1)     point group:

     e(  1 -  1) =     -8.66404  eV     1   --> A              
     e(  2 -  2) =     -8.54951  eV     1   --> A              
     e(  3 -  3) =     -8.54247  eV     1   --> A              
     e(  4 -  4) =     -8.52668  eV     1   --> A              
     e(  5 -  5) =     -8.50600  eV     1   --> A              
     e(  6 -  6) =     -4.02716  eV     1   --> A              
     e(  7 -  7) =     -0.26321  eV     1   --> A              
     e(  8 -  8) =      3.03745  eV     1   --> A              
     e(  9 -  9) =      3.34877  eV     1   --> A              
     e( 10 - 10) =      9.06192  eV     1   --> A              

 **************************************************************************

 **************************************************************************

                    xk=(   0.45417,  -0.10344,   0.47860  )

     Band symmetry, C_1 (1)     point group:

     e(  1 -  1) =     -8.66512  eV     1   --> A              
     e(  2 -  2) =     -8.54821  eV     1   --> A              
     e(  3 -  3) =     -8.54213  eV     1   --> A              
     e(  4 -  4) =     -8.52756  eV     1   --> A              
     e(  5 -  5) =     -8.50542  eV     1   --> A              
     e(  6 -  6) =     -4.02037  eV     1   --> A              
     e(  7 -  7) =     -0.28599  eV     1   --> A              
     e(  8 -  8) =      3.10619  eV     1   --> A              
     e(  9 -  9) =      3.35873  eV     1   --> A              
     e( 10 - 10) =      8.86111  eV     1   --> A              

 **************************************************************************

 **************************************************************************

                    xk=(   0.45833,  -0.12028,   0.47221  )

     Band symmetry, C_1 (1)     point group:

     e(  1 -  1) =     -8.66622  eV     1   --> A              
     e(  2 -  2) =     -8.54689  eV     1   --> A              
     e(  3 -  3) =     -8.54179  eV     1   --> A              
     e(  4 -  4) =     -8.52843  eV     1   --> A              
     e(  5 -  5) =     -8.50488  eV     1   --> A              
     e(  6 -  6) =     -4.01345  eV     1   --> A              
     e(  7 -  7) =     -0.30999  eV     1   --> A              
     e(  8 -  8) =      3.17523  eV     1   --> A              
     e(  9 -  9) =      3.37600  eV     1   --> A              
     e( 10 - 10) =      8.67079  eV     1   --> A              

 **************************************************************************

 **************************************************************************

                    xk=(   0.46250,  -0.13712,   0.46581  )

     Band symmetry, C_1 (1)     point group:

     e(  1 -  1) =     -8.66729  eV     1   --> A              
     e(  2 -  2) =     -8.54558  eV     1   --> A              
     e(  3 -  3) =     -8.54145  eV     1   --> A              
     e(  4 -  4) =     -8.52928  eV     1   --> A              
     e(  5 -  5) =     -8.50436  eV     1   --> A              
     e(  6 -  6) =     -4.00653  eV     1   --> A              
     e(  7 -  7) =     -0.33452  eV     1   --> A              
     e(  8 -  8) =      3.24353  eV     1   --> A              
     e(  9 -  9) =      3.39937  eV     1   --> A              
     e( 10 - 10) =      8.49280  eV     1   --> A              

 **************************************************************************

 **************************************************************************

                    xk=(   0.46667,  -0.15396,   0.45942  )

     Band symmetry, C_1 (1)     point group:

     e(  1 -  1) =     -8.66833  eV     1   --> A              
     e(  2 -  2) =     -8.54434  eV     1   --> A              
     e(  3 -  3) =     -8.54110  eV     1   --> A              
     e(  4 -  4) =     -8.53010  eV     1   --> A              
     e(  5 -  5) =     -8.50388  eV     1   --> A              
     e(  6 -  6) =     -3.99978  eV     1   --> A              
     e(  7 -  7) =     -0.35885  eV     1   --> A              
     e(  8 -  8) =      3.30994  eV     1   --> A              
     e(  9 -  9) =      3.42746  eV     1   --> A              
     e( 10 - 10) =      8.32869  eV     1   --> A              

 **************************************************************************

 **************************************************************************

                    xk=(   0.47083,  -0.17080,   0.45302  )

     Band symmetry, C_1 (1)     point group:

     e(  1 -  1) =     -8.66927  eV     1   --> A              
     e(  2 -  2) =     -8.54315  eV     1   --> A              
     e(  3 -  3) =     -8.54074  eV     1   --> A              
     e(  4 -  4) =     -8.53090  eV     1   --> A              
     e(  5 -  5) =     -8.50346  eV     1   --> A              
     e(  6 -  6) =     -3.99336  eV     1   --> A              
     e(  7 -  7) =     -0.38227  eV     1   --> A              
     e(  8 -  8) =      3.37317  eV     1   --> A              
     e(  9 -  9) =      3.45869  eV     1   --> A              
     e( 10 - 10) =      8.18004  eV     1   --> A              

 **************************************************************************

 **************************************************************************

                    xk=(   0.47500,  -0.18764,   0.44662  )

     Band symmetry, C_1 (1)     point group:

     e(  1 -  1) =     -8.67015  eV     1   --> A              
     e(  2 -  2) =     -8.54209  eV     1   --> A              
     e(  3 -  3) =     -8.54038  eV     1   --> A              
     e(  4 -  4) =     -8.53164  eV     1   --> A              
     e(  5 -  5) =     -8.50307  eV     1   --> A              
     e(  6 -  6) =     -3.98742  eV     1   --> A              
     e(  7 -  7) =     -0.40410  eV     1   --> A              
     e(  8 -  8) =      3.43186  eV     1   --> A              
     e(  9 -  9) =      3.49134  eV     1   --> A              
     e( 10 - 10) =      8.04829  eV     1   --> A              

 **************************************************************************

 **************************************************************************

                    xk=(   0.47917,  -0.20448,   0.44023  )

     Band symmetry, C_1 (1)     point group:

     e(  1 -  1) =     -8.67091  eV     1   --> A              
     e(  2 -  2) =     -8.54115  eV     1   --> A              
     e(  3 -  3) =     -8.54003  eV     1   --> A              
     e(  4 -  4) =     -8.53234  eV     1   --> A              
     e(  5 -  5) =     -8.50273  eV     1   --> A              
     e(  6 -  6) =     -3.98211  eV     1   --> A              
     e(  7 -  7) =     -0.42371  eV     1   --> A              
     e(  8 -  8) =      3.48459  eV     1   --> A              
     e(  9 -  9) =      3.52358  eV     1   --> A              
     e( 10 - 10) =      7.93489  eV     1   --> A              

 **************************************************************************

 **************************************************************************

                    xk=(   0.48333,  -0.22132,   0.43383  )

     Band symmetry, C_1 (1)     point group:

     e(  1 -  1) =     -8.67155  eV     1   --> A              
     e(  2 -  2) =     -8.54035  eV     1   --> A              
     e(  3 -  3) =     -8.53971  eV     1   --> A              
     e(  4 -  4) =     -8.53296  eV     1   --> A              
     e(  5 -  5) =     -8.50246  eV     1   --> A              
     e(  6 -  6) =     -3.97755  eV     1   --> A              
     e(  7 -  7) =     -0.44056  eV     1   --> A              
     e(  8 -  8) =      3.52999  eV     1   --> A              
     e(  9 -  9) =      3.55352  eV     1   --> A              
     e( 10 - 10) =      7.84112  eV     1   --> A              

 **************************************************************************

 **************************************************************************

                    xk=(   0.48750,  -0.23816,   0.42744  )

     Band symmetry, C_1 (1)     point group:

     e(  1 -  1) =     -8.67206  eV     1   --> A              
     e(  2 -  2) =     -8.53972  eV     1   --> A              
     e(  3 -  3) =     -8.53939  eV     1   --> A              
     e(  4 -  4) =     -8.53349  eV     1   --> A              
     e(  5 -  5) =     -8.50223  eV     1   --> A              
     e(  6 -  6) =     -3.97388  eV     1   --> A              
     e(  7 -  7) =     -0.45416  eV     1   --> A              
     e(  8 -  8) =      3.56677  eV     1   --> A              
     e(  9 -  9) =      3.57928  eV     1   --> A              
     e( 10 - 10) =      7.76794  eV     1   --> A              

 **************************************************************************

 **************************************************************************

                    xk=(   0.49167,  -0.25500,   0.42104  )

     Band symmetry, C_1 (1)     point group:

     e(  1 -  1) =     -8.67243  eV     1   --> A              
     e(  2 -  2) =     -8.53927  eV     1   --> A              
     e(  3 -  3) =     -8.53914  eV     1   --> A              
     e(  4 -  4) =     -8.53390  eV     1   --> A              
     e(  5 -  5) =     -8.50207  eV     1   --> A              
     e(  6 -  6) =     -3.97118  eV     1   --> A              
     e(  7 -  7) =     -0.46416  eV     1   --> A              
     e(  8 -  8) =      3.59385  eV     1   --> A              
     e(  9 -  9) =      3.59915  eV     1   --> A              
     e( 10 - 10) =      7.71589  eV     1   --> A              

 **************************************************************************

 **************************************************************************

                    xk=(   0.49583,  -0.27184,   0.41464  )

     Band symmetry, C_1 (1)     point group:

     e(  1 -  1) =     -8.67266  eV     1   --> A              
     e(  2 -  3) =     -8.53900  eV     2   -->   2 A              
     e(  4 -  4) =     -8.53417  eV     1   --> A              
     e(  5 -  5) =     -8.50196  eV     1   --> A              
     e(  6 -  6) =     -3.96954  eV     1   --> A              
     e(  7 -  7) =     -0.47026  eV     1   --> A              
     e(  8 -  8) =      3.61042  eV     1   --> A              
     e(  9 -  9) =      3.61170  eV     1   --> A              
     e( 10 - 10) =      7.68492  eV     1   --> A              

 **************************************************************************

 **************************************************************************

                    xk=(   0.50000,  -0.28868,   0.40825  )

     point group C_s (m)    
     there are  2 classes
     the character table:

       E     s    
A'     1.00  1.00
A''    1.00 -1.00

     the symmetry operations in each class and the name of the first element:

     E        1
                                                                 
     s        2
                                                                 

     Band symmetry, C_s (m)     point group:

     e(  1 -  1) =     -8.67272  eV     1   --> A'             
     e(  2 -  3) =     -8.53891  eV     2   --> A'             
     e(  2 -  3) =     -8.53891  eV     2   --> A''            
     e(  4 -  4) =     -8.53426  eV     1   --> A'             
     e(  5 -  5) =     -8.50194  eV     1   --> A''            
     e(  6 -  6) =     -3.96898  eV     1   --> A'             
     e(  7 -  7) =     -0.47232  eV     1   --> A'             
     e(  8 -  9) =      3.61600  eV     2   --> A'             
     e(  8 -  9) =      3.61600  eV     2   --> A''            
     e( 10 - 10) =      7.67470  eV     1   --> A'             

 **************************************************************************

     BANDS        :     27.62s CPU     22.63s WALL


   This run was terminated on:   6:20:53  12Dec2024            

=------------------------------------------------------------------------------=
   JOB DONE.
=------------------------------------------------------------------------------=
