
     Program PWSCF v.7.0 starts on 12Dec2024 at  5:36:16 

     This program is part of the open-source Quantum ESPRESSO suite
     for quantum simulation of materials; please cite
         "P. Giannozzi et al., J. Phys.:Condens. Matter 21 395502 (2009);
         "P. Giannozzi et al., J. Phys.:Condens. Matter 29 465901 (2017);
         "P. Giannozzi et al., J. Chem. Phys. 152 154105 (2020);
          URL http://www.quantum-espresso.org", 
     in publications or presentations arising from this work. More details at
     http://www.quantum-espresso.org/quote

     Parallel version (MPI & OpenMP), running on       2 processor cores
     Number of MPI processes:                 1
     Threads/MPI process:                     2

     MPI processes distributed on     1 nodes
     226 MiB available memory on the printing compute node when the environment starts

     Reading input from basic.in

     Current dimensions of program PWSCF are:
     Max number of different atomic species (ntypx) = 10
     Max number of k-points (npk) =  40000
     Max angular momentum in pseudopotentials (lmaxx) =  4
     file Ga.pbe-dn-kjpaw_psl.1.0.0.UPF: wavefunction(s)  4S renormalized

     IMPORTANT: XC functional enforced from input :
     Exchange-correlation= PBE
                           (   1   4   3   4   0   0   0)
     Any further DFT definition will be discarded
     Please, verify this is what you really want

     Message from routine setup:
     using ibrav=0 with symmetry is DISCOURAGED, use correct ibrav instead

     Subspace diagonalization in iterative solution of the eigenvalue problem:
     a serial algorithm will be used


     G-vector sticks info
     --------------------
     sticks:   dense  smooth     PW     G-vecs:    dense   smooth      PW
     Sum         817     817    253                15353    15353    2637

     Using Slab Decomposition



     bravais-lattice index     =            0
     lattice parameter (alat)  =       7.6836  a.u.
     unit-cell volume          =     320.7602 (a.u.)^3
     number of atoms/cell      =            2
     number of atomic types    =            2
     number of electrons       =        18.00
     number of Kohn-Sham states=           13
     kinetic-energy cutoff     =      50.0000  Ry
     charge density cutoff     =     200.0000  Ry
     scf convergence threshold =      1.0E-08
     mixing beta               =       0.7000
     number of iterations used =            8  plain     mixing
     Exchange-correlation= PBE
                           (   1   4   3   4   0   0   0)

     celldm(1)=   7.683608  celldm(2)=   0.000000  celldm(3)=   0.000000
     celldm(4)=   0.000000  celldm(5)=   0.000000  celldm(6)=   0.000000

     crystal axes: (cart. coord. in units of alat)
               a(1) = (   1.000000   0.000000   0.000000 )  
               a(2) = (   0.500000   0.866025   0.000000 )  
               a(3) = (   0.500000   0.288675   0.816497 )  

     reciprocal axes: (cart. coord. in units 2 pi/alat)
               b(1) = (  1.000000 -0.577350 -0.408248 )  
               b(2) = (  0.000000  1.154701 -0.408248 )  
               b(3) = (  0.000000  0.000000  1.224745 )  


     PseudoPot. # 1 for As read from file:
     ./As.pbe-n-kjpaw_psl.1.0.0.UPF
     MD5 check sum: 21b474db91924651be503153fb2dbf55
     Pseudo is Projector augmented-wave + core cor, Zval =  5.0
     Generated using &quot;atomic&quot; code by A. Dal Corso  v.6.3
     Shape of augmentation charge: PSQ
     Using radial grid of 1209 points,  4 beta functions with: 
                l(1) =   0
                l(2) =   0
                l(3) =   1
                l(4) =   1
     Q(r) pseudized with 0 coefficients 


     PseudoPot. # 2 for Ga read from file:
     ./Ga.pbe-dn-kjpaw_psl.1.0.0.UPF
     MD5 check sum: 50ce49cbf7e0a40ad8623bf41840a268
     Pseudo is Projector augmented-wave + core cor, Zval = 13.0
     Generated using &quot;atomic&quot; code by A. Dal Corso  v.6.3
     Shape of augmentation charge: PSQ
     Using radial grid of 1205 points,  6 beta functions with: 
                l(1) =   0
                l(2) =   0
                l(3) =   1
                l(4) =   1
                l(5) =   2
                l(6) =   2
     Q(r) pseudized with 0 coefficients 


     atomic species   valence    mass     pseudopotential
        As             5.00    74.92100     As( 1.00)
        Ga            13.00    69.72300     Ga( 1.00)

      6 Sym. Ops. (no inversion) found



   Cartesian axes

     site n.     atom                  positions (alat units)
         1           As  tau(   1) = (   0.5000000   0.2886751   0.2041241  )
         2           Ga  tau(   2) = (   0.0000000   0.0000000   0.0000000  )

     number of k points=    44  Marzari-Vanderbilt smearing, width (Ry)=  0.0050
                       cart. coord. in units 2pi/alat
        k(    1) = (   0.0000000   0.0000000   0.0000000), wk =   0.0058309
        k(    2) = (   0.0000000   0.0000000   0.1749636), wk =   0.0116618
        k(    3) = (   0.0000000   0.0000000   0.3499271), wk =   0.0116618
        k(    4) = (   0.0000000   0.0000000   0.5248907), wk =   0.0116618
        k(    5) = (   0.0000000   0.1649572  -0.0583212), wk =   0.0349854
        k(    6) = (   0.0000000   0.1649572   0.1166424), wk =   0.0349854
        k(    7) = (   0.0000000   0.1649572   0.2916059), wk =   0.0349854
        k(    8) = (   0.0000000   0.1649572   0.4665695), wk =   0.0349854
        k(    9) = (   0.0000000   0.1649572  -0.5832118), wk =   0.0349854
        k(   10) = (   0.0000000   0.1649572  -0.4082483), wk =   0.0349854
        k(   11) = (   0.0000000   0.1649572  -0.2332847), wk =   0.0349854
        k(   12) = (   0.0000000   0.3299144  -0.1166424), wk =   0.0349854
        k(   13) = (   0.0000000   0.3299144   0.0583212), wk =   0.0349854
        k(   14) = (   0.0000000   0.3299144   0.2332847), wk =   0.0349854
        k(   15) = (   0.0000000   0.3299144   0.4082483), wk =   0.0349854
        k(   16) = (   0.0000000   0.3299144  -0.6415330), wk =   0.0349854
        k(   17) = (   0.0000000   0.3299144  -0.4665695), wk =   0.0349854
        k(   18) = (   0.0000000   0.3299144  -0.2916059), wk =   0.0349854
        k(   19) = (   0.0000000   0.4948717  -0.1749636), wk =   0.0349854
        k(   20) = (   0.0000000   0.4948717   0.0000000), wk =   0.0349854
        k(   21) = (   0.0000000   0.4948717   0.1749636), wk =   0.0349854
        k(   22) = (   0.0000000   0.4948717   0.3499271), wk =   0.0349854
        k(   23) = (   0.0000000   0.4948717  -0.6998542), wk =   0.0349854
        k(   24) = (   0.0000000   0.4948717  -0.5248907), wk =   0.0349854
        k(   25) = (   0.0000000   0.4948717  -0.3499271), wk =   0.0349854
        k(   26) = (   0.1428571   0.2474358  -0.1749636), wk =   0.0699708
        k(   27) = (   0.1428571   0.2474358   0.0000000), wk =   0.0349854
        k(   28) = (   0.1428571   0.2474358   0.3499271), wk =   0.0699708
        k(   29) = (   0.1428571   0.2474358  -0.6998542), wk =   0.0699708
        k(   30) = (   0.1428571   0.4123930  -0.2332847), wk =   0.0699708
        k(   31) = (   0.1428571   0.4123930  -0.0583212), wk =   0.0699708
        k(   32) = (   0.1428571   0.4123930   0.1166424), wk =   0.0699708
        k(   33) = (   0.1428571   0.4123930   0.2916059), wk =   0.0699708
        k(   34) = (   0.1428571   0.4123930  -0.7581754), wk =   0.0699708
        k(   35) = (   0.1428571   0.4123930  -0.5832118), wk =   0.0699708
        k(   36) = (   0.1428571   0.4123930  -0.4082483), wk =   0.0699708
        k(   37) = (   0.1428571  -0.5773503   0.1166424), wk =   0.0699708
        k(   38) = (   0.1428571  -0.5773503   0.4665695), wk =   0.0699708
        k(   39) = (   0.1428571  -0.5773503   0.6415330), wk =   0.0699708
        k(   40) = (   0.1428571  -0.5773503  -0.4082483), wk =   0.0349854
        k(   41) = (   0.2857143  -0.6598289   0.0583212), wk =   0.0699708
        k(   42) = (   0.2857143  -0.6598289   0.2332847), wk =   0.0699708
        k(   43) = (   0.2857143  -0.6598289   0.4082483), wk =   0.0349854
        k(   44) = (   0.2857143  -0.6598289  -0.2916059), wk =   0.0699708

     Dense  grid:    15353 G-vectors     FFT dimensions: (  36,  36,  36)

     Estimated max dynamical RAM per process >      77.27 MB

     Check: negative core charge=   -0.000002

     Initial potential from superposition of free atoms

     starting charge      17.9968, renormalised to      18.0000
     Starting wfcs are   13 randomized atomic wfcs
     Checking if some PAW data can be deallocated... 

     total cpu time spent up to now is        8.2 secs

     per-process dynamical memory:    40.7 Mb

     Self-consistent Calculation

     iteration #  1     ecut=    50.00 Ry     beta= 0.70
     Davidson diagonalization with overlap
     ethr =  1.00E-02,  avg # of iterations =  3.9

     Threshold (ethr) on eigenvalues was too large:
     Diagonalizing with lowered threshold

     Davidson diagonalization with overlap
     ethr =  2.27E-04,  avg # of iterations =  6.6

     total cpu time spent up to now is       10.1 secs

     WARNING: integrated charge=    18.00000649, expected=    18.00000000

     total energy              =    -453.95539453 Ry
     estimated scf accuracy    <       0.04770038 Ry

     iteration #  2     ecut=    50.00 Ry     beta= 0.70
     Davidson diagonalization with overlap
     ethr =  2.65E-04,  avg # of iterations =  2.1

     total cpu time spent up to now is       24.8 secs

     WARNING: integrated charge=    18.00000307, expected=    18.00000000

     total energy              =    -453.96457961 Ry
     estimated scf accuracy    <       0.00993670 Ry

     iteration #  3     ecut=    50.00 Ry     beta= 0.70
     Davidson diagonalization with overlap
     ethr =  5.52E-05,  avg # of iterations =  3.1

     total cpu time spent up to now is       84.8 secs

     total energy              =    -453.96756247 Ry
     estimated scf accuracy    <       0.00063891 Ry

     iteration #  4     ecut=    50.00 Ry     beta= 0.70
     Davidson diagonalization with overlap
     ethr =  3.55E-06,  avg # of iterations =  8.2

     total cpu time spent up to now is       77.9 secs

     total energy              =    -453.96813436 Ry
     estimated scf accuracy    <       0.00020238 Ry

     iteration #  5     ecut=    50.00 Ry     beta= 0.70
     Davidson diagonalization with overlap
     ethr =  1.12E-06,  avg # of iterations =  2.4

     total cpu time spent up to now is       94.8 secs

     total energy              =    -453.96815889 Ry
     estimated scf accuracy    <       0.00001149 Ry

     iteration #  6     ecut=    50.00 Ry     beta= 0.70
     Davidson diagonalization with overlap
     ethr =  6.38E-08,  avg # of iterations =  7.1

     total cpu time spent up to now is      150.8 secs

     total energy              =    -453.96817119 Ry
     estimated scf accuracy    <       0.00002081 Ry

     iteration #  7     ecut=    50.00 Ry     beta= 0.70
     Davidson diagonalization with overlap
     ethr =  6.38E-08,  avg # of iterations =  4.3

     total cpu time spent up to now is      152.6 secs

     total energy              =    -453.96817479 Ry
     estimated scf accuracy    <       0.00000379 Ry

     iteration #  8     ecut=    50.00 Ry     beta= 0.70
     Davidson diagonalization with overlap
     ethr =  2.11E-08,  avg # of iterations =  1.6

     total cpu time spent up to now is      164.8 secs

     total energy              =    -453.96817500 Ry
     estimated scf accuracy    <       0.00000028 Ry

     iteration #  9     ecut=    50.00 Ry     beta= 0.70
     Davidson diagonalization with overlap
     ethr =  1.56E-09,  avg # of iterations =  6.0

     total cpu time spent up to now is      167.3 secs

     End of self-consistent calculation

          k = 0.0000 0.0000 0.0000 (  1917 PWs)   bands (ev):

    -8.5795  -8.5795  -8.5795  -8.5132  -8.5132  -6.2550   6.1254   6.1254
     6.1254   6.2753   9.8344   9.8344   9.8344

          k = 0.0000 0.0000 0.1750 (  1916 PWs)   bands (ev):

    -8.5929  -8.5757  -8.5757  -8.5132  -8.5132  -6.0352   3.8219   5.8502
     5.8502   7.5318  10.2452  10.2452  10.3926

          k = 0.0000 0.0000 0.3499 (  1910 PWs)   bands (ev):

    -8.6203  -8.5683  -8.5683  -8.5121  -8.5121  -5.4406   1.5463   5.3837
     5.3837   7.3144  10.7414  10.7414  12.4145

          k = 0.0000 0.0000 0.5249 (  1919 PWs)   bands (ev):

    -8.6405  -8.5638  -8.5638  -8.5098  -8.5098  -4.7705  -0.0150   5.0936
     5.0936   7.0231  10.7560  10.7560  13.8450

          k = 0.0000 0.1650-0.0583 (  1916 PWs)   bands (ev):

    -8.5929  -8.5757  -8.5757  -8.5132  -8.5132  -6.0352   3.8219   5.8502
     5.8502   7.5318  10.2452  10.2452  10.3926

          k = 0.0000 0.1650 0.1166 (  1920 PWs)   bands (ev):

    -8.6008  -8.5720  -8.5720  -8.5163  -8.5109  -5.9618   3.7644   5.3757
     5.3757   8.4155   9.1158  10.9687  10.9687

          k = 0.0000 0.1650 0.2916 (  1923 PWs)   bands (ev):

    -8.6227  -8.5656  -8.5640  -8.5183  -8.5089  -5.4873   2.0562   4.7493
     4.8757   8.5419   9.5777  11.6944  11.7378

          k = 0.0000 0.1650 0.4666 (  1919 PWs)   bands (ev):

    -8.6417  -8.5616  -8.5588  -8.5162  -8.5077  -4.8024   0.3906   4.0843
     4.6650   8.2780  10.3479  11.7210  12.5258

          k = 0.0000 0.1650-0.5832 (  1923 PWs)   bands (ev):

    -8.6464  -8.5607  -8.5586  -8.5122  -8.5099  -4.5133  -0.1567   3.7245
     4.8148   8.1911  10.5544  11.3914  13.9967

          k = 0.0000 0.1650-0.4082 (  1915 PWs)   bands (ev):

    -8.6339  -8.5634  -8.5627  -8.5141  -8.5106  -5.0349   0.8859   3.8186
     5.2627   8.3478  10.8470  11.0429  12.4485

          k = 0.0000 0.1650-0.2333 (  1923 PWs)   bands (ev):

    -8.6111  -8.5714  -8.5683  -8.5152  -8.5114  -5.6877   2.5807   4.5640
     5.7724   8.3309  10.2845  10.4345  11.5728

          k = 0.0000 0.3299-0.1166 (  1910 PWs)   bands (ev):

    -8.6203  -8.5683  -8.5683  -8.5121  -8.5121  -5.4406   1.5463   5.3837
     5.3837   7.3144  10.7414  10.7414  12.4145

          k = 0.0000 0.3299 0.0583 (  1923 PWs)   bands (ev):

    -8.6227  -8.5656  -8.5640  -8.5183  -8.5089  -5.4873   2.0562   4.7493
     4.8757   8.5419   9.5777  11.6944  11.7378

          k = 0.0000 0.3299 0.2333 (  1916 PWs)   bands (ev):

    -8.6410  -8.5547  -8.5546  -8.5248  -8.5058  -5.1559   1.5296   4.3106
     4.3106   7.9365   9.0895  13.1451  13.1451

          k = 0.0000 0.3299 0.4082 (  1922 PWs)   bands (ev):

    -8.6552  -8.5502  -8.5480  -8.5261  -8.5045  -4.5697   0.4293   3.4860
     4.0492   8.1301   9.3292  12.8543  13.6520

          k = 0.0000 0.3299-0.6415 (  1898 PWs)   bands (ev):

    -8.6572  -8.5530  -8.5476  -8.5211  -8.5074  -4.1590  -0.1811   2.6589
     4.1887   8.2729  11.1652  12.7600  13.1941

          k = 0.0000 0.3299-0.4666 (  1915 PWs)   bands (ev):

    -8.6483  -8.5577  -8.5537  -8.5146  -8.5125  -4.4438   0.2090   2.6248
     4.6775   8.6205  11.8142  12.2638  12.4709

          k = 0.0000 0.3299-0.2916 (  1915 PWs)   bands (ev):

    -8.6339  -8.5634  -8.5627  -8.5141  -8.5106  -5.0349   0.8859   3.8186
     5.2627   8.3478  10.8470  11.0429  12.4485

          k = 0.0000 0.4949-0.1750 (  1919 PWs)   bands (ev):

    -8.6405  -8.5638  -8.5638  -8.5098  -8.5098  -4.7705  -0.0150   5.0936
     5.0936   7.0231  10.7560  10.7560  13.8450

          k = 0.0000 0.4949 0.0000 (  1919 PWs)   bands (ev):

    -8.6417  -8.5616  -8.5588  -8.5162  -8.5077  -4.8024   0.3906   4.0843
     4.6650   8.2780  10.3479  11.7210  12.5258

          k = 0.0000 0.4949 0.1750 (  1922 PWs)   bands (ev):

    -8.6552  -8.5502  -8.5480  -8.5261  -8.5045  -4.5697   0.4293   3.4860
     4.0492   8.1301   9.3292  12.8543  13.6520

          k = 0.0000 0.4949 0.3499 (  1924 PWs)   bands (ev):

    -8.6683  -8.5403  -8.5403  -8.5324  -8.5018  -4.1761  -0.1737   3.6957
     3.6957   7.5985   8.0670  15.3879  15.3879

          k = 0.0000 0.4949-0.6999 (  1902 PWs)   bands (ev):

    -8.6682  -8.5432  -8.5401  -8.5296  -8.5031  -3.9604  -0.4156   3.0222
     3.7483   7.8566   8.9287  14.8221  15.0813

          k = 0.0000 0.4949-0.5249 (  1898 PWs)   bands (ev):

    -8.6572  -8.5530  -8.5476  -8.5211  -8.5074  -4.1590  -0.1811   2.6589
     4.1887   8.2729  11.1652  12.7600  13.1941

          k = 0.0000 0.4949-0.3499 (  1923 PWs)   bands (ev):

    -8.6464  -8.5607  -8.5586  -8.5122  -8.5099  -4.5133  -0.1567   3.7245
     4.8148   8.1911  10.5544  11.3914  13.9967

          k = 0.1429 0.2474-0.1750 (  1923 PWs)   bands (ev):

    -8.6227  -8.5656  -8.5640  -8.5183  -8.5089  -5.4873   2.0562   4.7493
     4.8757   8.5419   9.5777  11.6944  11.7378

          k = 0.1429 0.2474 0.0000 (  1923 PWs)   bands (ev):

    -8.6111  -8.5714  -8.5683  -8.5152  -8.5114  -5.6877   2.5807   4.5640
     5.7724   8.3309  10.2845  10.4345  11.5728

          k = 0.1429 0.2474 0.3499 (  1922 PWs)   bands (ev):

    -8.6406  -8.5595  -8.5559  -8.5204  -8.5076  -4.9488   1.0192   3.5208
     4.6165   9.1957   9.6748  11.3285  12.8984

          k = 0.1429 0.2474-0.6999 (  1907 PWs)   bands (ev):

    -8.6516  -8.5577  -8.5503  -8.5183  -8.5088  -4.3578   0.0262   2.9343
     4.1829   9.2672  10.3569  11.8564  13.4683

          k = 0.1429 0.4124-0.2333 (  1919 PWs)   bands (ev):

    -8.6417  -8.5616  -8.5588  -8.5162  -8.5077  -4.8024   0.3906   4.0843
     4.6650   8.2780  10.3479  11.7210  12.5258

          k = 0.1429 0.4124-0.0583 (  1915 PWs)   bands (ev):

    -8.6339  -8.5634  -8.5627  -8.5141  -8.5106  -5.0349   0.8859   3.8186
     5.2627   8.3478  10.8470  11.0429  12.4485

          k = 0.1429 0.4124 0.1166 (  1922 PWs)   bands (ev):

    -8.6406  -8.5595  -8.5559  -8.5204  -8.5075  -4.9488   1.0192   3.5208
     4.6165   9.1957   9.6748  11.3285  12.8984

          k = 0.1429 0.4124 0.2916 (  1922 PWs)   bands (ev):

    -8.6552  -8.5501  -8.5480  -8.5261  -8.5045  -4.5697   0.4293   3.4860
     4.0492   8.1301   9.3292  12.8543  13.6520

          k = 0.1429 0.4124-0.7582 (  1909 PWs)   bands (ev):

    -8.6623  -8.5491  -8.5425  -8.5259  -8.5051  -4.1048  -0.1717   3.0696
     3.4583   8.9834   9.2660  12.6372  14.6889

          k = 0.1429 0.4124-0.5832 (  1909 PWs)   bands (ev):

    -8.6593  -8.5538  -8.5431  -8.5215  -8.5085  -3.9931  -0.2591   2.5625
     3.5357   9.3709  11.1803  12.0025  12.7389

          k = 0.1429 0.4124-0.4082 (  1907 PWs)   bands (ev):

    -8.6516  -8.5577  -8.5503  -8.5183  -8.5088  -4.3578   0.0262   2.9343
     4.1829   9.2672  10.3569  11.8564  13.4683

          k = 0.1429-0.5774 0.1166 (  1923 PWs)   bands (ev):

    -8.6464  -8.5607  -8.5586  -8.5122  -8.5099  -4.5133  -0.1567   3.7245
     4.8148   8.1911  10.5544  11.3914  13.9967

          k = 0.1429-0.5774 0.4666 (  1907 PWs)   bands (ev):

    -8.6516  -8.5577  -8.5503  -8.5183  -8.5088  -4.3578   0.0262   2.9343
     4.1829   9.2672  10.3569  11.8564  13.4683

          k = 0.1429-0.5774 0.6415 (  1909 PWs)   bands (ev):

    -8.6623  -8.5491  -8.5425  -8.5259  -8.5051  -4.1048  -0.1717   3.0696
     3.4583   8.9834   9.2660  12.6372  14.6889

          k = 0.1429-0.5774-0.4082 (  1902 PWs)   bands (ev):

    -8.6682  -8.5432  -8.5401  -8.5296  -8.5031  -3.9604  -0.4156   3.0222
     3.7483   7.8566   8.9287  14.8221  15.0813

          k = 0.2857-0.6598 0.0583 (  1898 PWs)   bands (ev):

    -8.6572  -8.5530  -8.5476  -8.5211  -8.5074  -4.1590  -0.1811   2.6589
     4.1887   8.2729  11.1652  12.7600  13.1941

          k = 0.2857-0.6598 0.2333 (  1907 PWs)   bands (ev):

    -8.6516  -8.5577  -8.5503  -8.5183  -8.5088  -4.3578   0.0262   2.9343
     4.1829   9.2672  10.3569  11.8564  13.4683

          k = 0.2857-0.6598 0.4082 (  1915 PWs)   bands (ev):

    -8.6483  -8.5577  -8.5537  -8.5146  -8.5125  -4.4438   0.2090   2.6248
     4.6775   8.6205  11.8142  12.2638  12.4709

          k = 0.2857-0.6598-0.2916 (  1909 PWs)   bands (ev):

    -8.6593  -8.5538  -8.5431  -8.5215  -8.5085  -3.9931  -0.2591   2.5625
     3.5357   9.3709  11.1803  12.0025  12.7389

     the Fermi energy is     6.1875 ev

!    total energy              =    -453.96817535 Ry

     total all-electron energy =     -8410.100195 Ry
     estimated scf accuracy    <          1.5E-09 Ry
     smearing contrib. (-TS)   =       0.00000644 Ry
     internal energy E=F+TS    =    -453.96818180 Ry

     The total energy is F=E-TS. E is the sum of the following terms:
     one-electron contribution =    -121.61318327 Ry
     hartree contribution      =      76.05096469 Ry
     xc contribution           =     -49.66496218 Ry
     ewald contribution        =     -91.44956394 Ry
     one-center paw contrib.   =    -267.29143709 Ry

     convergence has been achieved in   9 iterations

     Forces acting on atoms (cartesian axes, Ry/au):

     atom    1 type  1   force =     0.00000000    0.00000000   -0.00000200
     atom    2 type  2   force =    -0.00000000   -0.00000000    0.00000200

     Total force =     0.000003     Total SCF correction =     0.000003
     SCF correction compared to forces is large: reduce conv_thr to get better values


     Computing stress (Cartesian axis) and pressure

          total   stress  (Ry/bohr**3)                   (kbar)     P=       -0.67
  -0.00000459   0.00000000  -0.00000000           -0.68        0.00       -0.00
   0.00000000  -0.00000459   0.00000000            0.00       -0.68        0.00
   0.00000000   0.00000000  -0.00000458            0.00        0.00       -0.67


     Writing all to output data dir ./outputs/basic.save/

     init_run     :      8.92s CPU      8.05s WALL (       1 calls)
     electrons    :    242.14s CPU    159.12s WALL (       1 calls)
     forces       :      0.78s CPU      0.55s WALL (       1 calls)
     stress       :      4.11s CPU      3.05s WALL (       1 calls)

     Called by init_run:
     wfcinit      :      7.53s CPU      6.58s WALL (       1 calls)
     potinit      :      0.19s CPU      0.13s WALL (       1 calls)
     hinit0       :      0.90s CPU      0.92s WALL (       1 calls)

     Called by electrons:
     c_bands      :    211.33s CPU    151.09s WALL (      10 calls)
     sum_band     :     24.68s CPU      3.58s WALL (      10 calls)
     v_of_rho     :      0.51s CPU      0.40s WALL (      10 calls)
     newd         :      3.02s CPU      2.54s WALL (      10 calls)
     PAW_pot      :      2.95s CPU      1.87s WALL (      10 calls)
     mix_rho      :      0.09s CPU      0.11s WALL (      10 calls)

     Called by c_bands:
     init_us_2    :      3.18s CPU      2.71s WALL (    1012 calls)
     init_us_2:cp :      3.17s CPU      2.71s WALL (    1012 calls)
     cegterg      :    208.99s CPU    149.07s WALL (     440 calls)

     Called by *egterg:
     cdiaghg      :      0.64s CPU      0.53s WALL (    2387 calls)
     h_psi        :    157.80s CPU     76.07s WALL (    2475 calls)
     s_psi        :      4.72s CPU      4.21s WALL (    2475 calls)
     g_psi        :      8.16s CPU      7.26s WALL (    1991 calls)

     Called by h_psi:
     h_psi:calbec :     16.23s CPU     -6.42s WALL (    2475 calls)
     vloc_psi     :    134.30s CPU     76.63s WALL (    2475 calls)
     add_vuspsi   :      1.11s CPU      0.75s WALL (    2475 calls)

     General routines
     calbec       :     20.51s CPU     -3.79s WALL (    3135 calls)
     fft          :      0.98s CPU      0.94s WALL (     136 calls)
     ffts         :      0.06s CPU      0.03s WALL (      10 calls)
     fftw         :    134.05s CPU     77.76s WALL (   43888 calls)

     Parallel routines

     PWSCF        :   4m16.43s CPU   2m36.33s WALL


   This run was terminated on:   5:38:52  12Dec2024            

=------------------------------------------------------------------------------=
   JOB DONE.
=------------------------------------------------------------------------------=
