
     Program BANDS v.7.0 starts on 10Dec2024 at 16:18:53 

     This program is part of the open-source Quantum ESPRESSO suite
     for quantum simulation of materials; please cite
         "P. Giannozzi et al., J. Phys.:Condens. Matter 21 395502 (2009);
         "P. Giannozzi et al., J. Phys.:Condens. Matter 29 465901 (2017);
         "P. Giannozzi et al., J. Chem. Phys. 152 154105 (2020);
          URL http://www.quantum-espresso.org", 
     in publications or presentations arising from this work. More details at
     http://www.quantum-espresso.org/quote

     Parallel version (MPI & OpenMP), running on       2 processor cores
     Number of MPI processes:                 1
     Threads/MPI process:                     2

     MPI processes distributed on     1 nodes
     179 MiB available memory on the printing compute node when the environment starts


     Reading xml data from directory:

     ./outputs/basic.save/
     Message from routine volume:
     axis vectors are left-handed

     IMPORTANT: XC functional enforced from input :
     Exchange-correlation= PBE
                           (   1   4   3   4   0   0   0)
     Any further DFT definition will be discarded
     Please, verify this is what you really want


     G-vector sticks info
     --------------------
     sticks:   dense  smooth     PW     G-vecs:    dense   smooth      PW
     Sum         793     793    241                14553    14553    2421

     Using Slab Decomposition

     Reading collected, re-writing distributed wavefunctions
     high-symmetry point:  0.0000 0.0000 0.0000   x coordinate   0.0000
     high-symmetry point:  0.0000 1.0000 0.0000   x coordinate   1.0000
     high-symmetry point:  0.0000 1.0000 0.5000   x coordinate   1.5000
     high-symmetry point:  0.0100 0.7400 0.7400   x coordinate   1.8540
     high-symmetry point:  0.0000 0.0000 0.0000   x coordinate   2.9005
     high-symmetry point:  0.5000 0.5000 0.5000   x coordinate   3.7666
     high-symmetry point:  0.2500 1.0000 0.2500   x coordinate   4.3789
     high-symmetry point:  0.0000 1.0000 0.5000   x coordinate   4.7325
     high-symmetry point:  0.5000 0.5000 0.5000   x coordinate   5.4396
     high-symmetry point:  0.0100 0.7400 0.7400   x coordinate   6.0357
     high-symmetry point:  0.0000 1.0000 0.0000   x coordinate   6.8201

     Plottable bands (eV) written to file germaniumbands.dat.gnu
     Bands written to file germaniumbands.dat

 **************************************************************************

                    xk=(   0.00000,   0.00000,   0.00000  )

     point group O_h (m-3m) 
     there are 10 classes
     the character table:

       E     8C3   3C2   6C4   6C2'  i     8S6   3s_h  6S4   6s_d 
A_1g   1.00  1.00  1.00  1.00  1.00  1.00  1.00  1.00  1.00  1.00
A_2g   1.00  1.00  1.00 -1.00 -1.00  1.00  1.00  1.00 -1.00 -1.00
E_g    2.00 -1.00  2.00  0.00  0.00  2.00 -1.00  2.00  0.00  0.00
T_1g   3.00  0.00 -1.00  1.00 -1.00  3.00  0.00 -1.00  1.00 -1.00
T_2g   3.00  0.00 -1.00 -1.00  1.00  3.00  0.00 -1.00 -1.00  1.00
A_1u   1.00  1.00  1.00  1.00  1.00 -1.00 -1.00 -1.00 -1.00 -1.00
A_2u   1.00  1.00  1.00 -1.00 -1.00 -1.00 -1.00 -1.00  1.00  1.00
E_u    2.00 -1.00  2.00  0.00  0.00 -2.00  1.00 -2.00  0.00  0.00
T_1u   3.00  0.00 -1.00  1.00 -1.00 -3.00  0.00  1.00 -1.00  1.00
T_2u   3.00  0.00 -1.00 -1.00  1.00 -3.00  0.00  1.00  1.00 -1.00

     the symmetry operations in each class and the name of the first element:

     E        1
                                                                 
     8C3     17   19   20   18   24   21   22   23
                                                                 
     3C2      2    4    3
                                                                 
     6C4      7    8   15   16   12   11
                                                                 
     6C2'     5    6   14   13   10    9
                                                                 
     i       25
                                                                 
     8S6     41   43   44   42   48   45   46   47
                                                                 
     3s_h    26   28   27
                                                                 
     6S4     31   32   39   40   36   35
                                                                 
     6s_d    29   30   38   37   34   33
                                                                 

     Band symmetry, O_h (m-3m)  point group:

     e(  1 -  1) =     -6.92881  eV     1   --> A_1g G_1   G_1+
     e(  2 -  4) =      5.80918  eV     3   --> T_2g G_25' G_5+
     e(  5 -  5) =      5.94637  eV     1   --> A_2u G_2'  G_2-
     e(  6 -  8) =      8.38472  eV     3   --> T_1u G_15  G_4-
     e(  9 -  9) =     12.40458  eV     1   --> A_1g G_1   G_1+
     e( 10 - 10) =     15.25663  eV     1   -->   ?

 **************************************************************************

 **************************************************************************

                    xk=(   0.00000,   0.03333,   0.00000  )

     point group C_4v (4mm) 
     there are  5 classes
     the character table:

       E     2C4   C2    2s_v  2s_d 
A_1    1.00  1.00  1.00  1.00  1.00
A_2    1.00  1.00  1.00 -1.00 -1.00
B_1    1.00 -1.00  1.00  1.00 -1.00
B_2    1.00 -1.00  1.00 -1.00  1.00
E      2.00  0.00 -2.00  0.00  0.00

     the symmetry operations in each class and the name of the first element:

     E        1
                                                                 
     2C4      3    4
                                                                 
     C2       2
                                                                 
     2s_v     5    6
                                                                 
     2s_d     7    8
                                                                 

     Band symmetry, C_4v (4mm)  point group:

     e(  1 -  1) =     -6.92431  eV     1   --> A_1  G_1 D_1   
     e(  2 -  2) =      5.54476  eV     1   --> B_2  G_4 D_2'  
     e(  3 -  4) =      5.78593  eV     2   --> E    G_5 D_5   
     e(  5 -  5) =      6.20950  eV     1   --> B_2  G_4 D_2'  
     e(  6 -  6) =      8.36918  eV     1   --> A_1  G_1 D_1   
     e(  7 -  8) =      8.41407  eV     2   --> E    G_5 D_5   
     e(  9 -  9) =     12.43039  eV     1   --> A_1  G_1 D_1   
     e( 10 - 10) =     15.16661  eV     1   --> B_2  G_4 D_2'  

 **************************************************************************

 **************************************************************************

                    xk=(   0.00000,   0.06667,   0.00000  )

     Band symmetry, C_4v (4mm)  point group:

     e(  1 -  1) =     -6.91080  eV     1   --> A_1  G_1 D_1   
     e(  2 -  2) =      5.22201  eV     1   --> B_2  G_4 D_2'  
     e(  3 -  4) =      5.71928  eV     2   --> E    G_5 D_5   
     e(  5 -  5) =      6.52808  eV     1   --> B_2  G_4 D_2'  
     e(  6 -  6) =      8.32383  eV     1   --> A_1  G_1 D_1   
     e(  7 -  8) =      8.49902  eV     2   --> E    G_5 D_5   
     e(  9 -  9) =     12.50652  eV     1   --> A_1  G_1 D_1   
     e( 10 - 10) =     14.93797  eV     1   --> B_2  G_4 D_2'  

 **************************************************************************

 **************************************************************************

                    xk=(   0.00000,   0.10000,   0.00000  )

     Band symmetry, C_4v (4mm)  point group:

     e(  1 -  1) =     -6.88830  eV     1   --> A_1  G_1 D_1   
     e(  2 -  2) =      4.89713  eV     1   --> B_2  G_4 D_2'  
     e(  3 -  4) =      5.61696  eV     2   --> E    G_5 D_5   
     e(  5 -  5) =      6.84500  eV     1   --> B_2  G_4 D_2'  
     e(  6 -  6) =      8.25209  eV     1   --> A_1  G_1 D_1   
     e(  7 -  8) =      8.63175  eV     2   --> E    G_5 D_5   
     e(  9 -  9) =     12.62949  eV     1   --> A_1  G_1 D_1   
     e( 10 - 10) =     14.63746  eV     1   --> B_2  G_4 D_2'  

 **************************************************************************

 **************************************************************************

                    xk=(   0.00000,   0.13333,   0.00000  )

     Band symmetry, C_4v (4mm)  point group:

     e(  1 -  1) =     -6.85682  eV     1   --> A_1  G_1 D_1   
     e(  2 -  2) =      4.57234  eV     1   --> B_2  G_4 D_2'  
     e(  3 -  4) =      5.48829  eV     2   --> E    G_5 D_5   
     e(  5 -  5) =      7.15639  eV     1   --> B_2  G_4 D_2'  
     e(  6 -  6) =      8.15872  eV     1   --> A_1  G_1 D_1   
     e(  7 -  8) =      8.80287  eV     2   --> E    G_5 D_5   
     e(  9 -  9) =     12.79444  eV     1   --> A_1  G_1 D_1   
     e( 10 - 10) =     14.30825  eV     1   --> B_2  G_4 D_2'  

 **************************************************************************

 **************************************************************************

                    xk=(   0.00000,   0.16667,   0.00000  )

     Band symmetry, C_4v (4mm)  point group:

     e(  1 -  1) =     -6.81637  eV     1   --> A_1  G_1 D_1   
     e(  2 -  2) =      4.24837  eV     1   --> B_2  G_4 D_2'  
     e(  3 -  4) =      5.34177  eV     2   --> E    G_5 D_5   
     e(  5 -  5) =      7.45902  eV     1   --> B_2  G_4 D_2'  
     e(  6 -  6) =      8.04890  eV     1   --> A_1  G_1 D_1   
     e(  7 -  8) =      9.00377  eV     2   --> E    G_5 D_5   
     e(  9 -  9) =     12.99604  eV     1   --> A_1  G_1 D_1   
     e( 10 - 10) =     13.97443  eV     1   --> B_2  G_4 D_2'  

 **************************************************************************

 **************************************************************************

                    xk=(   0.00000,   0.20000,   0.00000  )

     Band symmetry, C_4v (4mm)  point group:

     e(  1 -  1) =     -6.76698  eV     1   --> A_1  G_1 D_1   
     e(  2 -  2) =      3.92560  eV     1   --> B_2  G_4 D_2'  
     e(  3 -  4) =      5.18418  eV     2   --> E    G_5 D_5   
     e(  5 -  5) =      7.74882  eV     1   --> B_2  G_4 D_2'  
     e(  6 -  6) =      7.92756  eV     1   --> A_1  G_1 D_1   
     e(  7 -  8) =      9.22753  eV     2   --> E    G_5 D_5   
     e(  9 -  9) =     13.22918  eV     1   --> A_1  G_1 D_1   
     e( 10 - 10) =     13.65132  eV     1   --> B_2  G_4 D_2'  

 **************************************************************************

 **************************************************************************

                    xk=(   0.00000,   0.23333,   0.00000  )

     Band symmetry, C_4v (4mm)  point group:

     e(  1 -  1) =     -6.70867  eV     1   --> A_1  G_1 D_1   
     e(  2 -  2) =      3.60429  eV     1   --> B_2  G_4 D_2'  
     e(  3 -  4) =      5.02057  eV     2   --> E    G_5 D_5   
     e(  5 -  5) =      7.79902  eV     1   --> A_1  G_1 D_1   
     e(  6 -  6) =      8.02037  eV     1   --> B_2  G_4 D_2'  
     e(  7 -  8) =      9.46889  eV     2   --> E    G_5 D_5   
     e(  9 -  9) =     13.35077  eV     1   --> B_2  G_4 D_2'  
     e( 10 - 10) =     13.48928  eV     1   --> A_1  G_1 D_1   

 **************************************************************************

 **************************************************************************

                    xk=(   0.00000,   0.26667,   0.00000  )

     Band symmetry, C_4v (4mm)  point group:

     e(  1 -  1) =     -6.64148  eV     1   --> A_1  G_1 D_1   
     e(  2 -  2) =      3.28461  eV     1   --> B_2  G_4 D_2'  
     e(  3 -  4) =      4.85465  eV     2   --> E    G_5 D_5   
     e(  5 -  5) =      7.66686  eV     1   --> A_1  G_1 D_1   
     e(  6 -  6) =      8.26646  eV     1   --> B_2  G_4 D_2'  
     e(  7 -  8) =      9.72398  eV     2   --> E    G_5 D_5   
     e(  9 -  9) =     13.08397  eV     1   --> B_2  G_4 D_2'  
     e( 10 - 10) =     13.77240  eV     1   --> A_1  G_1 D_1   

 **************************************************************************

 **************************************************************************

                    xk=(   0.00000,   0.30000,   0.00000  )

     Band symmetry, C_4v (4mm)  point group:

     e(  1 -  1) =     -6.56544  eV     1   --> A_1  G_1 D_1   
     e(  2 -  2) =      2.96669  eV     1   --> B_2  G_4 D_2'  
     e(  3 -  4) =      4.68910  eV     2   --> E    G_5 D_5   
     e(  5 -  5) =      7.53401  eV     1   --> A_1  G_1 D_1   
     e(  6 -  6) =      8.47782  eV     1   --> B_2  G_4 D_2'  
     e(  7 -  8) =      9.98990  eV     2   --> E    G_5 D_5   
     e(  9 -  9) =     12.86267  eV     1   --> B_2  G_4 D_2'  
     e( 10 - 10) =     14.07519  eV     1   --> A_1  G_1 D_1   

 **************************************************************************

 **************************************************************************

                    xk=(   0.00000,   0.33333,   0.00000  )

     Band symmetry, C_4v (4mm)  point group:

     e(  1 -  1) =     -6.48061  eV     1   --> A_1  G_1 D_1   
     e(  2 -  2) =      2.65065  eV     1   --> B_2  G_4 D_2'  
     e(  3 -  4) =      4.52588  eV     2   --> E    G_5 D_5   
     e(  5 -  5) =      7.40279  eV     1   --> A_1  G_1 D_1   
     e(  6 -  6) =      8.64369  eV     1   --> B_2  G_4 D_2'  
     e(  7 -  8) =     10.26446  eV     2   --> E    G_5 D_5   
     e(  9 -  9) =     12.69934  eV     1   --> B_2  G_4 D_2'  
     e( 10 - 10) =     14.39477  eV     1   --> A_1  G_1 D_1   

 **************************************************************************

 **************************************************************************

                    xk=(   0.00000,   0.36667,   0.00000  )

     Band symmetry, C_4v (4mm)  point group:

     e(  1 -  1) =     -6.38702  eV     1   --> A_1  G_1 D_1   
     e(  2 -  2) =      2.33657  eV     1   --> B_2  G_4 D_2'  
     e(  3 -  4) =      4.36647  eV     2   --> E    G_5 D_5   
     e(  5 -  5) =      7.27506  eV     1   --> A_1  G_1 D_1   
     e(  6 -  6) =      8.75360  eV     1   --> B_2  G_4 D_2'  
     e(  7 -  8) =     10.54595  eV     2   --> E    G_5 D_5   
     e(  9 -  9) =     12.60549  eV     1   --> B_2  G_4 D_2'  
     e( 10 - 10) =     14.72853  eV     1   --> A_1  G_1 D_1   

 **************************************************************************

 **************************************************************************

                    xk=(   0.00000,   0.40000,   0.00000  )

     Band symmetry, C_4v (4mm)  point group:

     e(  1 -  1) =     -6.28474  eV     1   --> A_1  G_1 D_1   
     e(  2 -  2) =      2.02454  eV     1   --> B_2  G_4 D_2'  
     e(  3 -  4) =      4.21197  eV     2   --> E    G_5 D_5   
     e(  5 -  5) =      7.15230  eV     1   --> A_1  G_1 D_1   
     e(  6 -  6) =      8.80077  eV     1   --> B_2  G_4 D_2'  
     e(  7 -  8) =     10.83303  eV     2   --> E    G_5 D_5   
     e(  9 -  9) =     12.58861  eV     1   --> B_2  G_4 D_2'  
     e( 10 - 10) =     15.07408  eV     1   --> A_1  G_1 D_1   

 **************************************************************************

 **************************************************************************

                    xk=(   0.00000,   0.43333,   0.00000  )

     Band symmetry, C_4v (4mm)  point group:

     e(  1 -  1) =     -6.17382  eV     1   --> A_1  G_1 D_1   
     e(  2 -  2) =      1.71464  eV     1   --> B_2  G_4 D_2'  
     e(  3 -  4) =      4.06324  eV     2   --> E    G_5 D_5   
     e(  5 -  5) =      7.03570  eV     1   --> A_1  G_1 D_1   
     e(  6 -  6) =      8.78535  eV     1   --> B_2  G_4 D_2'  
     e(  7 -  8) =     11.12459  eV     2   --> E    G_5 D_5   
     e(  9 -  9) =     12.64890  eV     1   --> B_2  G_4 D_2'  
     e( 10 - 10) =     15.42898  eV     1   --> A_1  G_1 D_1   

 **************************************************************************

 **************************************************************************

                    xk=(   0.00000,   0.46667,   0.00000  )

     Band symmetry, C_4v (4mm)  point group:

     e(  1 -  1) =     -6.05434  eV     1   --> A_1  G_1 D_1   
     e(  2 -  2) =      1.40698  eV     1   --> B_2  G_4 D_2'  
     e(  3 -  4) =      3.92094  eV     2   --> E    G_5 D_5   
     e(  5 -  5) =      6.92621  eV     1   --> A_1  G_1 D_1   
     e(  6 -  6) =      8.71493  eV     1   --> B_2  G_4 D_2'  
     e(  7 -  8) =     11.41971  eV     2   --> E    G_5 D_5   
     e(  9 -  9) =     12.77894  eV     1   --> B_2  G_4 D_2'  
     e( 10 - 10) =     15.79066  eV     1   --> A_1  G_1 D_1   

 **************************************************************************

 **************************************************************************

                    xk=(   0.00000,   0.50000,   0.00000  )

     Band symmetry, C_4v (4mm)  point group:

     e(  1 -  1) =     -5.92638  eV     1   --> A_1  G_1 D_1   
     e(  2 -  2) =      1.10167  eV     1   --> B_2  G_4 D_2'  
     e(  3 -  4) =      3.78562  eV     2   --> E    G_5 D_5   
     e(  5 -  5) =      6.82462  eV     1   --> A_1  G_1 D_1   
     e(  6 -  6) =      8.60169  eV     1   --> B_2  G_4 D_2'  
     e(  7 -  8) =     11.71760  eV     2   --> E    G_5 D_5   
     e(  9 -  9) =     12.96653  eV     1   --> B_2  G_4 D_2'  
     e( 10 - 10) =     16.15617  eV     1   --> A_1  G_1 D_1   

 **************************************************************************

 **************************************************************************

                    xk=(   0.00000,   0.53333,   0.00000  )

     Band symmetry, C_4v (4mm)  point group:

     e(  1 -  1) =     -5.79001  eV     1   --> A_1  G_1 D_1   
     e(  2 -  2) =      0.79884  eV     1   --> B_2  G_4 D_2'  
     e(  3 -  4) =      3.65771  eV     2   --> E    G_5 D_5   
     e(  5 -  5) =      6.73158  eV     1   --> A_1  G_1 D_1   
     e(  6 -  6) =      8.45857  eV     1   --> B_2  G_4 D_2'  
     e(  7 -  8) =     12.01755  eV     2   --> E    G_5 D_5   
     e(  9 -  9) =     13.19859  eV     1   --> B_2  G_4 D_2'  
     e( 10 - 10) =     16.52194  eV     1   --> A_1  G_1 D_1   

 **************************************************************************

 **************************************************************************

                    xk=(   0.00000,   0.56667,   0.00000  )

     Band symmetry, C_4v (4mm)  point group:

     e(  1 -  1) =     -5.64534  eV     1   --> A_1  G_1 D_1   
     e(  2 -  2) =      0.49863  eV     1   --> B_2  G_4 D_2'  
     e(  3 -  4) =      3.53754  eV     2   --> E    G_5 D_5   
     e(  5 -  5) =      6.64762  eV     1   --> A_1  G_1 D_1   
     e(  6 -  6) =      8.29683  eV     1   --> B_2  G_4 D_2'  
     e(  7 -  8) =     12.31888  eV     2   --> E    G_5 D_5   
     e(  9 -  9) =     13.46358  eV     1   --> B_2  G_4 D_2'  
     e( 10 - 10) =     16.73830  eV     1   --> A_2  G_2 D_1'  

 **************************************************************************

 **************************************************************************

                    xk=(   0.00000,   0.60000,   0.00000  )

     Band symmetry, C_4v (4mm)  point group:

     e(  1 -  1) =     -5.49247  eV     1   --> A_1  G_1 D_1   
     e(  2 -  2) =      0.20122  eV     1   --> B_2  G_4 D_2'  
     e(  3 -  4) =      3.42542  eV     2   --> E    G_5 D_5   
     e(  5 -  5) =      6.57320  eV     1   --> A_1  G_1 D_1   
     e(  6 -  6) =      8.12526  eV     1   --> B_2  G_4 D_2'  
     e(  7 -  8) =     12.62088  eV     2   --> E    G_5 D_5   
     e(  9 -  9) =     13.75235  eV     1   --> B_2  G_4 D_2'  
     e( 10 - 10) =     16.91759  eV     1   --> A_2  G_2 D_1'  

 **************************************************************************

 **************************************************************************

                    xk=(   0.00000,   0.63333,   0.00000  )

     Band symmetry, C_4v (4mm)  point group:

     e(  1 -  1) =     -5.33149  eV     1   --> A_1  G_1 D_1   
     e(  2 -  2) =     -0.09320  eV     1   --> B_2  G_4 D_2'  
     e(  3 -  4) =      3.32158  eV     2   --> E    G_5 D_5   
     e(  5 -  5) =      6.50872  eV     1   --> A_1  G_1 D_1   
     e(  6 -  6) =      7.95036  eV     1   --> B_2  G_4 D_2'  
     e(  7 -  8) =     12.92281  eV     2   --> E    G_5 D_5   
     e(  9 -  9) =     14.05796  eV     1   --> B_2  G_4 D_2'  
     e( 10 - 10) =     17.10710  eV     1   --> A_2  G_2 D_1'  

 **************************************************************************

 **************************************************************************

                    xk=(   0.00000,   0.66667,   0.00000  )

     Band symmetry, C_4v (4mm)  point group:

     e(  1 -  1) =     -5.16255  eV     1   --> A_1  G_1 D_1   
     e(  2 -  2) =     -0.38445  eV     1   --> B_2  G_4 D_2'  
     e(  3 -  4) =      3.22623  eV     2   --> E    G_5 D_5   
     e(  5 -  5) =      6.45453  eV     1   --> A_1  G_1 D_1   
     e(  6 -  6) =      7.77680  eV     1   --> B_2  G_4 D_2'  
     e(  7 -  8) =     13.22375  eV     2   --> E    G_5 D_5   
     e(  9 -  9) =     14.37524  eV     1   --> B_2  G_4 D_2'  
     e( 10 - 10) =     17.30681  eV     1   --> A_2  G_2 D_1'  

 **************************************************************************

 **************************************************************************

                    xk=(   0.00000,   0.70000,   0.00000  )

     Band symmetry, C_4v (4mm)  point group:

     e(  1 -  1) =     -4.98575  eV     1   --> A_1  G_1 D_1   
     e(  2 -  2) =     -0.67228  eV     1   --> B_2  G_4 D_2'  
     e(  3 -  4) =      3.13954  eV     2   --> E    G_5 D_5   
     e(  5 -  5) =      6.41092  eV     1   --> A_1  G_1 D_1   
     e(  6 -  6) =      7.60792  eV     1   --> B_2  G_4 D_2'  
     e(  7 -  8) =     13.52254  eV     2   --> E    G_5 D_5   
     e(  9 -  9) =     14.70029  eV     1   --> B_2  G_4 D_2'  
     e( 10 - 10) =     17.51672  eV     1   --> A_2  G_2 D_1'  

 **************************************************************************

 **************************************************************************

                    xk=(   0.00000,   0.73333,   0.00000  )

     Band symmetry, C_4v (4mm)  point group:

     e(  1 -  1) =     -4.80125  eV     1   --> A_1  G_1 D_1   
     e(  2 -  2) =     -0.95648  eV     1   --> B_2  G_4 D_2'  
     e(  3 -  4) =      3.06163  eV     2   --> E    G_5 D_5   
     e(  5 -  5) =      6.37816  eV     1   --> A_1  G_1 D_1   
     e(  6 -  6) =      7.44609  eV     1   --> B_2  G_4 D_2'  
     e(  7 -  8) =     13.81761  eV     2   --> E    G_5 D_5   
     e(  9 -  9) =     15.03009  eV     1   --> B_2  G_4 D_2'  
     e( 10 - 10) =     17.73682  eV     1   --> A_2  G_2 D_1'  

 **************************************************************************

 **************************************************************************

                    xk=(   0.00000,   0.76667,   0.00000  )

     Band symmetry, C_4v (4mm)  point group:

     e(  1 -  1) =     -4.60919  eV     1   --> A_1  G_1 D_1   
     e(  2 -  2) =     -1.23677  eV     1   --> B_2  G_4 D_2'  
     e(  3 -  4) =      2.99265  eV     2   --> E    G_5 D_5   
     e(  5 -  5) =      6.35650  eV     1   --> A_1  G_1 D_1   
     e(  6 -  6) =      7.29297  eV     1   --> B_2  G_4 D_2'  
     e(  7 -  8) =     14.10675  eV     2   --> E    G_5 D_5   
     e(  9 -  9) =     15.36225  eV     1   --> B_2  G_4 D_2'  
     e( 10 - 10) =     17.96714  eV     1   --> A_2  G_2 D_1'  

 **************************************************************************

 **************************************************************************

                    xk=(   0.00000,   0.80000,   0.00000  )

     Band symmetry, C_4v (4mm)  point group:

     e(  1 -  1) =     -4.40974  eV     1   --> A_1  G_1 D_1   
     e(  2 -  2) =     -1.51294  eV     1   --> B_2  G_4 D_2'  
     e(  3 -  4) =      2.93267  eV     2   --> E    G_5 D_5   
     e(  5 -  5) =      6.34615  eV     1   --> A_1  G_1 D_1   
     e(  6 -  6) =      7.14978  eV     1   --> B_2  G_4 D_2'  
     e(  7 -  8) =     14.38674  eV     2   --> E    G_5 D_5   
     e(  9 -  9) =     15.69470  eV     1   --> B_2  G_4 D_2'  
     e( 10 - 10) =     18.20759  eV     1   --> A_2  G_2 D_1'  

 **************************************************************************

 **************************************************************************

                    xk=(   0.00000,   0.83333,   0.00000  )

     Band symmetry, C_4v (4mm)  point group:

     e(  1 -  1) =     -4.20307  eV     1   --> A_1  G_1 D_1   
     e(  2 -  2) =     -1.78470  eV     1   --> B_2  G_4 D_2'  
     e(  3 -  4) =      2.88180  eV     2   --> E    G_5 D_5   
     e(  5 -  5) =      6.34730  eV     1   --> A_1  G_1 D_1   
     e(  6 -  6) =      7.01733  eV     1   --> B_2  G_4 D_2'  
     e(  7 -  8) =     14.65294  eV     2   --> E    G_5 D_5   
     e(  9 -  9) =     16.02556  eV     1   --> B_2  G_4 D_2'  
     e( 10 - 10) =     18.45821  eV     1   --> A_2  G_2 D_1'  

 **************************************************************************

 **************************************************************************

                    xk=(   0.00000,   0.86667,   0.00000  )

     Band symmetry, C_4v (4mm)  point group:

     e(  1 -  1) =     -3.98935  eV     1   --> A_1  G_1 D_1   
     e(  2 -  2) =     -2.05178  eV     1   --> B_2  G_4 D_2'  
     e(  3 -  4) =      2.84008  eV     2   --> E    G_5 D_5   
     e(  5 -  5) =      6.36014  eV     1   --> A_1  G_1 D_1   
     e(  6 -  6) =      6.89622  eV     1   --> B_2  G_4 D_2'  
     e(  7 -  8) =     14.89852  eV     2   --> E    G_5 D_5   
     e(  9 -  9) =     16.35302  eV     1   --> B_2  G_4 D_2'  
     e( 10 - 10) =     18.44480  eV     1   --> A_1  G_1 D_1   

 **************************************************************************

 **************************************************************************

                    xk=(   0.00000,   0.90000,   0.00000  )

     Band symmetry, C_4v (4mm)  point group:

     e(  1 -  1) =     -3.76878  eV     1   --> A_1  G_1 D_1   
     e(  2 -  2) =     -2.31393  eV     1   --> B_2  G_4 D_2'  
     e(  3 -  4) =      2.80759  eV     2   --> E    G_5 D_5   
     e(  5 -  5) =      6.38482  eV     1   --> A_1  G_1 D_1   
     e(  6 -  6) =      6.78684  eV     1   --> B_2  G_4 D_2'  
     e(  7 -  8) =     15.11366  eV     2   --> E    G_5 D_5   
     e(  9 -  9) =     16.67500  eV     1   --> B_2  G_4 D_2'  
     e( 10 - 10) =     18.29107  eV     1   --> A_1  G_1 D_1   

 **************************************************************************

 **************************************************************************

                    xk=(   0.00000,   0.93333,   0.00000  )

     Band symmetry, C_4v (4mm)  point group:

     e(  1 -  1) =     -3.54158  eV     1   --> A_1  G_1 D_1   
     e(  2 -  2) =     -2.57087  eV     1   --> B_2  G_4 D_2'  
     e(  3 -  4) =      2.78435  eV     2   --> E    G_5 D_5   
     e(  5 -  5) =      6.42147  eV     1   --> A_1  G_1 D_1   
     e(  6 -  6) =      6.68944  eV     1   --> B_2  G_4 D_2'  
     e(  7 -  8) =     15.28517  eV     2   --> E    G_5 D_5   
     e(  9 -  9) =     16.98909  eV     1   --> B_2  G_4 D_2'  
     e( 10 - 10) =     18.08824  eV     1   --> A_1  G_1 D_1   

 **************************************************************************

 **************************************************************************

                    xk=(   0.00000,   0.96667,   0.00000  )

     Band symmetry, C_4v (4mm)  point group:

     e(  1 -  1) =     -3.30796  eV     1   --> A_1  G_1 D_1   
     e(  2 -  2) =     -2.82236  eV     1   --> B_2  G_4 D_2'  
     e(  3 -  4) =      2.77039  eV     2   --> E    G_5 D_5   
     e(  5 -  5) =      6.47020  eV     1   --> A_1  G_1 D_1   
     e(  6 -  6) =      6.60417  eV     1   --> B_2  G_4 D_2'  
     e(  7 -  8) =     15.39747  eV     2   --> E    G_5 D_5   
     e(  9 -  9) =     17.29224  eV     1   --> B_2  G_4 D_2'  
     e( 10 - 10) =     17.84816  eV     1   --> A_1  G_1 D_1   

 **************************************************************************

 **************************************************************************

                    xk=(   0.00000,   1.00000,   0.00000  )

     zone border point and non-symmorphic group 
     symmetry decomposition not available

 **************************************************************************

 **************************************************************************

                    xk=(   0.00000,   1.00000,   0.01667  )

     zone border point and non-symmorphic group 
     symmetry decomposition not available

 **************************************************************************

 **************************************************************************

                    xk=(   0.00000,   1.00000,   0.03333  )

     zone border point and non-symmorphic group 
     symmetry decomposition not available

 **************************************************************************

 **************************************************************************

                    xk=(   0.00000,   1.00000,   0.05000  )

     zone border point and non-symmorphic group 
     symmetry decomposition not available

 **************************************************************************

 **************************************************************************

                    xk=(   0.00000,   1.00000,   0.06667  )

     zone border point and non-symmorphic group 
     symmetry decomposition not available

 **************************************************************************

 **************************************************************************

                    xk=(   0.00000,   1.00000,   0.08333  )

     zone border point and non-symmorphic group 
     symmetry decomposition not available

 **************************************************************************

 **************************************************************************

                    xk=(   0.00000,   1.00000,   0.10000  )

     zone border point and non-symmorphic group 
     symmetry decomposition not available

 **************************************************************************

 **************************************************************************

                    xk=(   0.00000,   1.00000,   0.11667  )

     zone border point and non-symmorphic group 
     symmetry decomposition not available

 **************************************************************************

 **************************************************************************

                    xk=(   0.00000,   1.00000,   0.13333  )

     zone border point and non-symmorphic group 
     symmetry decomposition not available

 **************************************************************************

 **************************************************************************

                    xk=(   0.00000,   1.00000,   0.15000  )

     zone border point and non-symmorphic group 
     symmetry decomposition not available

 **************************************************************************

 **************************************************************************

                    xk=(   0.00000,   1.00000,   0.16667  )

     zone border point and non-symmorphic group 
     symmetry decomposition not available

 **************************************************************************

 **************************************************************************

                    xk=(   0.00000,   1.00000,   0.18333  )

     zone border point and non-symmorphic group 
     symmetry decomposition not available

 **************************************************************************

 **************************************************************************

                    xk=(   0.00000,   1.00000,   0.20000  )

     zone border point and non-symmorphic group 
     symmetry decomposition not available

 **************************************************************************

 **************************************************************************

                    xk=(  -0.00000,   1.00000,   0.21667  )

     zone border point and non-symmorphic group 
     symmetry decomposition not available

 **************************************************************************

 **************************************************************************

                    xk=(   0.00000,   1.00000,   0.23333  )

     zone border point and non-symmorphic group 
     symmetry decomposition not available

 **************************************************************************

 **************************************************************************

                    xk=(   0.00000,   1.00000,   0.25000  )

     zone border point and non-symmorphic group 
     symmetry decomposition not available

 **************************************************************************

 **************************************************************************

                    xk=(   0.00000,   1.00000,   0.26667  )

     zone border point and non-symmorphic group 
     symmetry decomposition not available

 **************************************************************************

 **************************************************************************

                    xk=(   0.00000,   1.00000,   0.28333  )

     zone border point and non-symmorphic group 
     symmetry decomposition not available

 **************************************************************************

 **************************************************************************

                    xk=(   0.00000,   1.00000,   0.30000  )

     zone border point and non-symmorphic group 
     symmetry decomposition not available

 **************************************************************************

 **************************************************************************

                    xk=(   0.00000,   1.00000,   0.31667  )

     zone border point and non-symmorphic group 
     symmetry decomposition not available

 **************************************************************************

 **************************************************************************

                    xk=(   0.00000,   1.00000,   0.33333  )

     zone border point and non-symmorphic group 
     symmetry decomposition not available

 **************************************************************************

 **************************************************************************

                    xk=(  -0.00000,   1.00000,   0.35000  )

     zone border point and non-symmorphic group 
     symmetry decomposition not available

 **************************************************************************

 **************************************************************************

                    xk=(   0.00000,   1.00000,   0.36667  )

     zone border point and non-symmorphic group 
     symmetry decomposition not available

 **************************************************************************

 **************************************************************************

                    xk=(   0.00000,   1.00000,   0.38333  )

     zone border point and non-symmorphic group 
     symmetry decomposition not available

 **************************************************************************

 **************************************************************************

                    xk=(   0.00000,   1.00000,   0.40000  )

     zone border point and non-symmorphic group 
     symmetry decomposition not available

 **************************************************************************

 **************************************************************************

                    xk=(  -0.00000,   1.00000,   0.41667  )

     zone border point and non-symmorphic group 
     symmetry decomposition not available

 **************************************************************************

 **************************************************************************

                    xk=(   0.00000,   1.00000,   0.43333  )

     zone border point and non-symmorphic group 
     symmetry decomposition not available

 **************************************************************************

 **************************************************************************

                    xk=(   0.00000,   1.00000,   0.45000  )

     zone border point and non-symmorphic group 
     symmetry decomposition not available

 **************************************************************************

 **************************************************************************

                    xk=(   0.00000,   1.00000,   0.46667  )

     zone border point and non-symmorphic group 
     symmetry decomposition not available

 **************************************************************************

 **************************************************************************

                    xk=(  -0.00000,   1.00000,   0.48333  )

     zone border point and non-symmorphic group 
     symmetry decomposition not available

 **************************************************************************

 **************************************************************************

                    xk=(   0.00000,   1.00000,   0.50000  )

     zone border point and non-symmorphic group 
     symmetry decomposition not available

 **************************************************************************

 **************************************************************************

                    xk=(   0.00033,   0.99133,   0.50800  )

     point group C_1 (1)    
     there are  1 classes
     the character table:

       E    
A      1.00

     the symmetry operations in each class and the name of the first element:

     E        1
                                                                 

     Band symmetry, C_1 (1)     point group:

     e(  1 -  1) =     -3.01037  eV     1   --> A              
     e(  2 -  2) =     -2.93327  eV     1   --> A              
     e(  3 -  3) =      1.88716  eV     1   --> A              
     e(  4 -  4) =      1.94527  eV     1   --> A              
     e(  5 -  5) =     10.12406  eV     1   --> A              
     e(  6 -  6) =     10.23650  eV     1   --> A              
     e(  7 -  7) =     10.56474  eV     1   --> A              
     e(  8 -  8) =     10.58732  eV     1   --> A              
     e(  9 -  9) =     16.86012  eV     1   --> A              
     e( 10 - 10) =     17.02229  eV     1   --> A              

 **************************************************************************

 **************************************************************************

                    xk=(   0.00067,   0.98267,   0.51600  )

     Band symmetry, C_1 (1)     point group:

     e(  1 -  1) =     -3.04776  eV     1   --> A              
     e(  2 -  2) =     -2.89637  eV     1   --> A              
     e(  3 -  3) =      1.85981  eV     1   --> A              
     e(  4 -  4) =      1.97824  eV     1   --> A              
     e(  5 -  5) =      9.98792  eV     1   --> A              
     e(  6 -  6) =     10.25011  eV     1   --> A              
     e(  7 -  7) =     10.63509  eV     1   --> A              
     e(  8 -  8) =     10.64653  eV     1   --> A              
     e(  9 -  9) =     16.77228  eV     1   --> A              
     e( 10 - 10) =     17.09492  eV     1   --> A              

 **************************************************************************

 **************************************************************************

                    xk=(   0.00100,   0.97400,   0.52400  )

     Band symmetry, C_1 (1)     point group:

     e(  1 -  1) =     -3.08392  eV     1   --> A              
     e(  2 -  2) =     -2.86105  eV     1   --> A              
     e(  3 -  3) =      1.83323  eV     1   --> A              
     e(  4 -  4) =      2.01412  eV     1   --> A              
     e(  5 -  5) =      9.83619  eV     1   --> A              
     e(  6 -  6) =     10.25305  eV     1   --> A              
     e(  7 -  7) =     10.71066  eV     1   --> A              
     e(  8 -  8) =     10.73157  eV     1   --> A              
     e(  9 -  9) =     16.68069  eV     1   --> A              
     e( 10 - 10) =     17.15956  eV     1   --> A              

 **************************************************************************

 **************************************************************************

                    xk=(   0.00133,   0.96533,   0.53200  )

     Band symmetry, C_1 (1)     point group:

     e(  1 -  1) =     -3.11882  eV     1   --> A              
     e(  2 -  2) =     -2.82733  eV     1   --> A              
     e(  3 -  3) =      1.80746  eV     1   --> A              
     e(  4 -  4) =      2.05283  eV     1   --> A              
     e(  5 -  5) =      9.68005  eV     1   --> A              
     e(  6 -  6) =     10.24948  eV     1   --> A              
     e(  7 -  7) =     10.78925  eV     1   --> A              
     e(  8 -  8) =     10.82931  eV     1   --> A              
     e(  9 -  9) =     16.58585  eV     1   --> A              
     e( 10 - 10) =     17.21382  eV     1   --> A              

 **************************************************************************

 **************************************************************************

                    xk=(   0.00167,   0.95667,   0.54000  )

     Band symmetry, C_1 (1)     point group:

     e(  1 -  1) =     -3.15249  eV     1   --> A              
     e(  2 -  2) =     -2.79521  eV     1   --> A              
     e(  3 -  3) =      1.78250  eV     1   --> A              
     e(  4 -  4) =      2.09428  eV     1   --> A              
     e(  5 -  5) =      9.52318  eV     1   --> A              
     e(  6 -  6) =     10.24223  eV     1   --> A              
     e(  7 -  7) =     10.87301  eV     1   --> A              
     e(  8 -  8) =     10.93118  eV     1   --> A              
     e(  9 -  9) =     16.48815  eV     1   --> A              
     e( 10 - 10) =     17.25489  eV     1   --> A              

 **************************************************************************

 **************************************************************************

                    xk=(   0.00200,   0.94800,   0.54800  )

     Band symmetry, C_1 (1)     point group:

     e(  1 -  1) =     -3.18490  eV     1   --> A              
     e(  2 -  2) =     -2.76468  eV     1   --> A              
     e(  3 -  3) =      1.75838  eV     1   --> A              
     e(  4 -  4) =      2.13835  eV     1   --> A              
     e(  5 -  5) =      9.36711  eV     1   --> A              
     e(  6 -  6) =     10.23297  eV     1   --> A              
     e(  7 -  7) =     10.96061  eV     1   --> A              
     e(  8 -  8) =     11.03531  eV     1   --> A              
     e(  9 -  9) =     16.38791  eV     1   --> A              
     e( 10 - 10) =     17.27988  eV     1   --> A              

 **************************************************************************

 **************************************************************************

                    xk=(   0.00233,   0.93933,   0.55600  )

     Band symmetry, C_1 (1)     point group:

     e(  1 -  1) =     -3.21607  eV     1   --> A              
     e(  2 -  2) =     -2.73573  eV     1   --> A              
     e(  3 -  3) =      1.73510  eV     1   --> A              
     e(  4 -  4) =      2.18492  eV     1   --> A              
     e(  5 -  5) =      9.21263  eV     1   --> A              
     e(  6 -  6) =     10.22271  eV     1   --> A              
     e(  7 -  7) =     11.05110  eV     1   --> A              
     e(  8 -  8) =     11.14089  eV     1   --> A              
     e(  9 -  9) =     16.28540  eV     1   --> A              
     e( 10 - 10) =     17.28636  eV     1   --> A              

 **************************************************************************

 **************************************************************************

                    xk=(   0.00267,   0.93067,   0.56400  )

     Band symmetry, C_1 (1)     point group:

     e(  1 -  1) =     -3.24599  eV     1   --> A              
     e(  2 -  2) =     -2.70834  eV     1   --> A              
     e(  3 -  3) =      1.71268  eV     1   --> A              
     e(  4 -  4) =      2.23383  eV     1   --> A              
     e(  5 -  5) =      9.06024  eV     1   --> A              
     e(  6 -  6) =     10.21208  eV     1   --> A              
     e(  7 -  7) =     11.14386  eV     1   --> A              
     e(  8 -  8) =     11.24746  eV     1   --> A              
     e(  9 -  9) =     16.18085  eV     1   --> A              
     e( 10 - 10) =     17.27302  eV     1   --> A              

 **************************************************************************

 **************************************************************************

                    xk=(   0.00300,   0.92200,   0.57200  )

     Band symmetry, C_1 (1)     point group:

     e(  1 -  1) =     -3.27466  eV     1   --> A              
     e(  2 -  2) =     -2.68248  eV     1   --> A              
     e(  3 -  3) =      1.69113  eV     1   --> A              
     e(  4 -  4) =      2.28491  eV     1   --> A              
     e(  5 -  5) =      8.91031  eV     1   --> A              
     e(  6 -  6) =     10.20144  eV     1   --> A              
     e(  7 -  7) =     11.23848  eV     1   --> A              
     e(  8 -  8) =     11.35472  eV     1   --> A              
     e(  9 -  9) =     16.07448  eV     1   --> A              
     e( 10 - 10) =     17.24013  eV     1   --> A              

 **************************************************************************

 **************************************************************************

                    xk=(   0.00333,   0.91333,   0.58000  )

     Band symmetry, C_1 (1)     point group:

     e(  1 -  1) =     -3.30207  eV     1   --> A              
     e(  2 -  2) =     -2.65814  eV     1   --> A              
     e(  3 -  3) =      1.67047  eV     1   --> A              
     e(  4 -  4) =      2.33796  eV     1   --> A              
     e(  5 -  5) =      8.76316  eV     1   --> A              
     e(  6 -  6) =     10.19107  eV     1   --> A              
     e(  7 -  7) =     11.33465  eV     1   --> A              
     e(  8 -  8) =     11.46241  eV     1   --> A              
     e(  9 -  9) =     15.96645  eV     1   --> A              
     e( 10 - 10) =     17.18946  eV     1   --> A              

 **************************************************************************

 **************************************************************************

                    xk=(   0.00367,   0.90467,   0.58800  )

     Band symmetry, C_1 (1)     point group:

     e(  1 -  1) =     -3.32823  eV     1   --> A              
     e(  2 -  2) =     -2.63527  eV     1   --> A              
     e(  3 -  3) =      1.65071  eV     1   --> A              
     e(  4 -  4) =      2.39276  eV     1   --> A              
     e(  5 -  5) =      8.61906  eV     1   --> A              
     e(  6 -  6) =     10.18112  eV     1   --> A              
     e(  7 -  7) =     11.43216  eV     1   --> A              
     e(  8 -  8) =     11.57032  eV     1   --> A              
     e(  9 -  9) =     15.85695  eV     1   --> A              
     e( 10 - 10) =     17.12370  eV     1   --> A              

 **************************************************************************

 **************************************************************************

                    xk=(   0.00400,   0.89600,   0.59600  )

     Band symmetry, C_1 (1)     point group:

     e(  1 -  1) =     -3.35315  eV     1   --> A              
     e(  2 -  2) =     -2.61383  eV     1   --> A              
     e(  3 -  3) =      1.63186  eV     1   --> A              
     e(  4 -  4) =      2.44905  eV     1   --> A              
     e(  5 -  5) =      8.47831  eV     1   --> A              
     e(  6 -  6) =     10.17173  eV     1   --> A              
     e(  7 -  7) =     11.53083  eV     1   --> A              
     e(  8 -  8) =     11.67823  eV     1   --> A              
     e(  9 -  9) =     15.74613  eV     1   --> A              
     e( 10 - 10) =     17.04582  eV     1   --> A              

 **************************************************************************

 **************************************************************************

                    xk=(   0.00433,   0.88733,   0.60400  )

     Band symmetry, C_1 (1)     point group:

     e(  1 -  1) =     -3.37680  eV     1   --> A              
     e(  2 -  2) =     -2.59379  eV     1   --> A              
     e(  3 -  3) =      1.61392  eV     1   --> A              
     e(  4 -  4) =      2.50657  eV     1   --> A              
     e(  5 -  5) =      8.34118  eV     1   --> A              
     e(  6 -  6) =     10.16299  eV     1   --> A              
     e(  7 -  7) =     11.63051  eV     1   --> A              
     e(  8 -  8) =     11.78593  eV     1   --> A              
     e(  9 -  9) =     15.63414  eV     1   --> A              
     e( 10 - 10) =     16.95859  eV     1   --> A              

 **************************************************************************

 **************************************************************************

                    xk=(   0.00467,   0.87867,   0.61200  )

     Band symmetry, C_1 (1)     point group:

     e(  1 -  1) =     -3.39920  eV     1   --> A              
     e(  2 -  2) =     -2.57510  eV     1   --> A              
     e(  3 -  3) =      1.59692  eV     1   --> A              
     e(  4 -  4) =      2.56500  eV     1   --> A              
     e(  5 -  5) =      8.20800  eV     1   --> A              
     e(  6 -  6) =     10.15495  eV     1   --> A              
     e(  7 -  7) =     11.73105  eV     1   --> A              
     e(  8 -  8) =     11.89316  eV     1   --> A              
     e(  9 -  9) =     15.52114  eV     1   --> A              
     e( 10 - 10) =     16.86442  eV     1   --> A              

 **************************************************************************

 **************************************************************************

                    xk=(   0.00500,   0.87000,   0.62000  )

     Band symmetry, C_1 (1)     point group:

     e(  1 -  1) =     -3.42035  eV     1   --> A              
     e(  2 -  2) =     -2.55773  eV     1   --> A              
     e(  3 -  3) =      1.58085  eV     1   --> A              
     e(  4 -  4) =      2.62400  eV     1   --> A              
     e(  5 -  5) =      8.07910  eV     1   --> A              
     e(  6 -  6) =     10.14768  eV     1   --> A              
     e(  7 -  7) =     11.83229  eV     1   --> A              
     e(  8 -  8) =     11.99966  eV     1   --> A              
     e(  9 -  9) =     15.40728  eV     1   --> A              
     e( 10 - 10) =     16.76534  eV     1   --> A              

 **************************************************************************

 **************************************************************************

                    xk=(   0.00533,   0.86133,   0.62800  )

     Band symmetry, C_1 (1)     point group:

     e(  1 -  1) =     -3.44024  eV     1   --> A              
     e(  2 -  2) =     -2.54162  eV     1   --> A              
     e(  3 -  3) =      1.56572  eV     1   --> A              
     e(  4 -  4) =      2.68319  eV     1   --> A              
     e(  5 -  5) =      7.95483  eV     1   --> A              
     e(  6 -  6) =     10.14121  eV     1   --> A              
     e(  7 -  7) =     11.93410  eV     1   --> A              
     e(  8 -  8) =     12.10512  eV     1   --> A              
     e(  9 -  9) =     15.29274  eV     1   --> A              
     e( 10 - 10) =     16.66305  eV     1   --> A              

 **************************************************************************

 **************************************************************************

                    xk=(   0.00567,   0.85267,   0.63600  )

     Band symmetry, C_1 (1)     point group:

     e(  1 -  1) =     -3.45887  eV     1   --> A              
     e(  2 -  2) =     -2.52673  eV     1   --> A              
     e(  3 -  3) =      1.55155  eV     1   --> A              
     e(  4 -  4) =      2.74215  eV     1   --> A              
     e(  5 -  5) =      7.83559  eV     1   --> A              
     e(  6 -  6) =     10.13558  eV     1   --> A              
     e(  7 -  7) =     12.03630  eV     1   --> A              
     e(  8 -  8) =     12.20918  eV     1   --> A              
     e(  9 -  9) =     15.17769  eV     1   --> A              
     e( 10 - 10) =     16.55896  eV     1   --> A              

 **************************************************************************

 **************************************************************************

                    xk=(   0.00600,   0.84400,   0.64400  )

     Band symmetry, C_1 (1)     point group:

     e(  1 -  1) =     -3.47625  eV     1   --> A              
     e(  2 -  2) =     -2.51302  eV     1   --> A              
     e(  3 -  3) =      1.53833  eV     1   --> A              
     e(  4 -  4) =      2.80043  eV     1   --> A              
     e(  5 -  5) =      7.72181  eV     1   --> A              
     e(  6 -  6) =     10.13080  eV     1   --> A              
     e(  7 -  7) =     12.13869  eV     1   --> A              
     e(  8 -  8) =     12.31142  eV     1   --> A              
     e(  9 -  9) =     15.06233  eV     1   --> A              
     e( 10 - 10) =     16.45436  eV     1   --> A              

 **************************************************************************

 **************************************************************************

                    xk=(   0.00633,   0.83533,   0.65200  )

     Band symmetry, C_1 (1)     point group:

     e(  1 -  1) =     -3.49237  eV     1   --> A              
     e(  2 -  2) =     -2.50044  eV     1   --> A              
     e(  3 -  3) =      1.52608  eV     1   --> A              
     e(  4 -  4) =      2.85751  eV     1   --> A              
     e(  5 -  5) =      7.61398  eV     1   --> A              
     e(  6 -  6) =     10.12691  eV     1   --> A              
     e(  7 -  7) =     12.24102  eV     1   --> A              
     e(  8 -  8) =     12.41138  eV     1   --> A              
     e(  9 -  9) =     14.94690  eV     1   --> A              
     e( 10 - 10) =     16.35042  eV     1   --> A              

 **************************************************************************

 **************************************************************************

                    xk=(   0.00667,   0.82667,   0.66000  )

     Band symmetry, C_1 (1)     point group:

     e(  1 -  1) =     -3.50723  eV     1   --> A              
     e(  2 -  2) =     -2.48895  eV     1   --> A              
     e(  3 -  3) =      1.51481  eV     1   --> A              
     e(  4 -  4) =      2.91287  eV     1   --> A              
     e(  5 -  5) =      7.51260  eV     1   --> A              
     e(  6 -  6) =     10.12391  eV     1   --> A              
     e(  7 -  7) =     12.34296  eV     1   --> A              
     e(  8 -  8) =     12.50851  eV     1   --> A              
     e(  9 -  9) =     14.83168  eV     1   --> A              
     e( 10 - 10) =     16.24827  eV     1   --> A              

 **************************************************************************

 **************************************************************************

                    xk=(   0.00700,   0.81800,   0.66800  )

     Band symmetry, C_1 (1)     point group:

     e(  1 -  1) =     -3.52084  eV     1   --> A              
     e(  2 -  2) =     -2.47852  eV     1   --> A              
     e(  3 -  3) =      1.50451  eV     1   --> A              
     e(  4 -  4) =      2.96591  eV     1   --> A              
     e(  5 -  5) =      7.41825  eV     1   --> A              
     e(  6 -  6) =     10.12182  eV     1   --> A              
     e(  7 -  7) =     12.44405  eV     1   --> A              
     e(  8 -  8) =     12.60219  eV     1   --> A              
     e(  9 -  9) =     14.71703  eV     1   --> A              
     e( 10 - 10) =     16.14905  eV     1   --> A              

 **************************************************************************

 **************************************************************************

                    xk=(   0.00733,   0.80933,   0.67600  )

     Band symmetry, C_1 (1)     point group:

     e(  1 -  1) =     -3.53319  eV     1   --> A              
     e(  2 -  2) =     -2.46910  eV     1   --> A              
     e(  3 -  3) =      1.49519  eV     1   --> A              
     e(  4 -  4) =      3.01601  eV     1   --> A              
     e(  5 -  5) =      7.33150  eV     1   --> A              
     e(  6 -  6) =     10.12066  eV     1   --> A              
     e(  7 -  7) =     12.54365  eV     1   --> A              
     e(  8 -  8) =     12.69177  eV     1   --> A              
     e(  9 -  9) =     14.60341  eV     1   --> A              
     e( 10 - 10) =     16.05397  eV     1   --> A              

 **************************************************************************

 **************************************************************************

                    xk=(   0.00767,   0.80067,   0.68400  )

     Band symmetry, C_1 (1)     point group:

     e(  1 -  1) =     -3.54428  eV     1   --> A              
     e(  2 -  2) =     -2.46066  eV     1   --> A              
     e(  3 -  3) =      1.48685  eV     1   --> A              
     e(  4 -  4) =      3.06253  eV     1   --> A              
     e(  5 -  5) =      7.25299  eV     1   --> A              
     e(  6 -  6) =     10.12043  eV     1   --> A              
     e(  7 -  7) =     12.64077  eV     1   --> A              
     e(  8 -  8) =     12.77659  eV     1   --> A              
     e(  9 -  9) =     14.49147  eV     1   --> A              
     e( 10 - 10) =     15.96429  eV     1   --> A              

 **************************************************************************

 **************************************************************************

                    xk=(   0.00800,   0.79200,   0.69200  )

     Band symmetry, C_1 (1)     point group:

     e(  1 -  1) =     -3.55411  eV     1   --> A              
     e(  2 -  2) =     -2.45318  eV     1   --> A              
     e(  3 -  3) =      1.47951  eV     1   --> A              
     e(  4 -  4) =      3.10479  eV     1   --> A              
     e(  5 -  5) =      7.18334  eV     1   --> A              
     e(  6 -  6) =     10.12115  eV     1   --> A              
     e(  7 -  7) =     12.73383  eV     1   --> A              
     e(  8 -  8) =     12.85616  eV     1   --> A              
     e(  9 -  9) =     14.38214  eV     1   --> A              
     e( 10 - 10) =     15.88140  eV     1   --> A              

 **************************************************************************

 **************************************************************************

                    xk=(   0.00833,   0.78333,   0.70000  )

     Band symmetry, C_1 (1)     point group:

     e(  1 -  1) =     -3.56269  eV     1   --> A              
     e(  2 -  2) =     -2.44662  eV     1   --> A              
     e(  3 -  3) =      1.47315  eV     1   --> A              
     e(  4 -  4) =      3.14215  eV     1   --> A              
     e(  5 -  5) =      7.12321  eV     1   --> A              
     e(  6 -  6) =     10.12281  eV     1   --> A              
     e(  7 -  7) =     12.82025  eV     1   --> A              
     e(  8 -  8) =     12.93036  eV     1   --> A              
     e(  9 -  9) =     14.27682  eV     1   --> A              
     e( 10 - 10) =     15.80681  eV     1   --> A              

 **************************************************************************

 **************************************************************************

                    xk=(   0.00867,   0.77467,   0.70800  )

     Band symmetry, C_1 (1)     point group:

     e(  1 -  1) =     -3.57001  eV     1   --> A              
     e(  2 -  2) =     -2.44096  eV     1   --> A              
     e(  3 -  3) =      1.46779  eV     1   --> A              
     e(  4 -  4) =      3.17396  eV     1   --> A              
     e(  5 -  5) =      7.07322  eV     1   --> A              
     e(  6 -  6) =     10.12542  eV     1   --> A              
     e(  7 -  7) =     12.89612  eV     1   --> A              
     e(  8 -  8) =     12.99952  eV     1   --> A              
     e(  9 -  9) =     14.17767  eV     1   --> A              
     e( 10 - 10) =     15.74206  eV     1   --> A              

 **************************************************************************

 **************************************************************************

                    xk=(   0.00900,   0.76600,   0.71600  )

     Band symmetry, C_1 (1)     point group:

     e(  1 -  1) =     -3.57608  eV     1   --> A              
     e(  2 -  2) =     -2.43618  eV     1   --> A              
     e(  3 -  3) =      1.46343  eV     1   --> A              
     e(  4 -  4) =      3.19964  eV     1   --> A              
     e(  5 -  5) =      7.03391  eV     1   --> A              
     e(  6 -  6) =     10.12899  eV     1   --> A              
     e(  7 -  7) =     12.95693  eV     1   --> A              
     e(  8 -  8) =     13.06325  eV     1   --> A              
     e(  9 -  9) =     14.08815  eV     1   --> A              
     e( 10 - 10) =     15.68874  eV     1   --> A              

 **************************************************************************

 **************************************************************************

                    xk=(   0.00933,   0.75733,   0.72400  )

     Band symmetry, C_1 (1)     point group:

     e(  1 -  1) =     -3.58089  eV     1   --> A              
     e(  2 -  2) =     -2.43227  eV     1   --> A              
     e(  3 -  3) =      1.46006  eV     1   --> A              
     e(  4 -  4) =      3.21871  eV     1   --> A              
     e(  5 -  5) =      7.00578  eV     1   --> A              
     e(  6 -  6) =     10.13351  eV     1   --> A              
     e(  7 -  7) =     12.99973  eV     1   --> A              
     e(  8 -  8) =     13.11769  eV     1   --> A              
     e(  9 -  9) =     14.01368  eV     1   --> A              
     e( 10 - 10) =     15.64832  eV     1   --> A              

 **************************************************************************

 **************************************************************************

                    xk=(   0.00967,   0.74867,   0.73200  )

     Band symmetry, C_1 (1)     point group:

     e(  1 -  1) =     -3.58444  eV     1   --> A              
     e(  2 -  2) =     -2.42921  eV     1   --> A              
     e(  3 -  3) =      1.45769  eV     1   --> A              
     e(  4 -  4) =      3.23079  eV     1   --> A              
     e(  5 -  5) =      6.98919  eV     1   --> A              
     e(  6 -  6) =     10.13900  eV     1   --> A              
     e(  7 -  7) =     13.02381  eV     1   --> A              
     e(  8 -  8) =     13.15473  eV     1   --> A              
     e(  9 -  9) =     13.96192  eV     1   --> A              
     e( 10 - 10) =     15.62205  eV     1   --> A              

 **************************************************************************

 **************************************************************************

                    xk=(   0.01000,   0.74000,   0.74000  )

     point group C_s (m)    
     there are  2 classes
     the character table:

       E     s    
A'     1.00  1.00
A''    1.00 -1.00

     the symmetry operations in each class and the name of the first element:

     E        1
                                                                 
     s        2
                                                                 

     Band symmetry, C_s (m)     point group:

     e(  1 -  1) =     -3.58674  eV     1   --> A'             
     e(  2 -  2) =     -2.42700  eV     1   --> A'             
     e(  3 -  3) =      1.45632  eV     1   --> A'             
     e(  4 -  4) =      3.23564  eV     1   --> A''            
     e(  5 -  5) =      6.98438  eV     1   --> A'             
     e(  6 -  6) =     10.14546  eV     1   --> A'             
     e(  7 -  7) =     13.02911  eV     1   --> A'             
     e(  8 -  8) =     13.16558  eV     1   --> A''            
     e(  9 -  9) =     13.94093  eV     1   --> A'             
     e( 10 - 10) =     15.61076  eV     1   --> A''            

 **************************************************************************

 **************************************************************************

                    xk=(   0.00967,   0.71533,   0.71533  )

     Band symmetry, C_s (m)     point group:

     e(  1 -  1) =     -3.70461  eV     1   --> A'             
     e(  2 -  2) =     -2.30110  eV     1   --> A'             
     e(  3 -  3) =      1.40015  eV     1   --> A'             
     e(  4 -  4) =      3.32507  eV     1   --> A''            
     e(  5 -  5) =      7.06731  eV     1   --> A'             
     e(  6 -  6) =     10.66102  eV     1   --> A'             
     e(  7 -  7) =     12.77602  eV     1   --> A'             
     e(  8 -  8) =     12.88037  eV     1   --> A''            
     e(  9 -  9) =     13.61276  eV     1   --> A'             
     e( 10 - 10) =     15.32728  eV     1   --> A''            

 **************************************************************************

 **************************************************************************

                    xk=(   0.00933,   0.69067,   0.69067  )

     Band symmetry, C_s (m)     point group:

     e(  1 -  1) =     -3.83476  eV     1   --> A'             
     e(  2 -  2) =     -2.16347  eV     1   --> A'             
     e(  3 -  3) =      1.37127  eV     1   --> A'             
     e(  4 -  4) =      3.42105  eV     1   --> A''            
     e(  5 -  5) =      7.15460  eV     1   --> A'             
     e(  6 -  6) =     11.17889  eV     1   --> A'             
     e(  7 -  7) =     12.53388  eV     1   --> A'             
     e(  8 -  8) =     12.59891  eV     1   --> A''            
     e(  9 -  9) =     13.30555  eV     1   --> A'             
     e( 10 - 10) =     15.05717  eV     1   --> A''            

 **************************************************************************

 **************************************************************************

                    xk=(   0.00900,   0.66600,   0.66600  )

     Band symmetry, C_s (m)     point group:

     e(  1 -  1) =     -3.97563  eV     1   --> A'             
     e(  2 -  2) =     -2.01421  eV     1   --> A'             
     e(  3 -  3) =      1.36926  eV     1   --> A'             
     e(  4 -  4) =      3.52313  eV     1   --> A''            
     e(  5 -  5) =      7.24509  eV     1   --> A'             
     e(  6 -  6) =     11.67552  eV     1   --> A'             
     e(  7 -  7) =     12.30577  eV     1   --> A'             
     e(  8 -  8) =     12.32250  eV     1   --> A''            
     e(  9 -  9) =     13.03900  eV     1   --> A'             
     e( 10 - 10) =     14.80115  eV     1   --> A''            

 **************************************************************************

 **************************************************************************

                    xk=(   0.00867,   0.64133,   0.64133  )

     Band symmetry, C_s (m)     point group:

     e(  1 -  1) =     -4.12543  eV     1   --> A'             
     e(  2 -  2) =     -1.85340  eV     1   --> A'             
     e(  3 -  3) =      1.39310  eV     1   --> A'             
     e(  4 -  4) =      3.63078  eV     1   --> A''            
     e(  5 -  5) =      7.33740  eV     1   --> A'             
     e(  6 -  6) =     12.01830  eV     1   --> A'             
     e(  7 -  7) =     12.05217  eV     1   --> A''            
     e(  8 -  8) =     12.13116  eV     1   --> A'             
     e(  9 -  9) =     12.90496  eV     1   --> A'             
     e( 10 - 10) =     14.55992  eV     1   --> A''            

 **************************************************************************

 **************************************************************************

                    xk=(   0.00833,   0.61667,   0.61667  )

     Band symmetry, C_s (m)     point group:

     e(  1 -  1) =     -4.28217  eV     1   --> A'             
     e(  2 -  2) =     -1.68108  eV     1   --> A'             
     e(  3 -  3) =      1.44146  eV     1   --> A'             
     e(  4 -  4) =      3.74342  eV     1   --> A''            
     e(  5 -  5) =      7.42986  eV     1   --> A'             
     e(  6 -  6) =     11.78876  eV     1   --> A''            
     e(  7 -  7) =     11.87034  eV     1   --> A'             
     e(  8 -  8) =     12.11305  eV     1   --> A'             
     e(  9 -  9) =     13.13532  eV     1   --> A'             
     e( 10 - 10) =     14.33425  eV     1   --> A''            

 **************************************************************************

 **************************************************************************

                    xk=(   0.00800,   0.59200,   0.59200  )

     Band symmetry, C_s (m)     point group:

     e(  1 -  1) =     -4.44389  eV     1   --> A'             
     e(  2 -  2) =     -1.49732  eV     1   --> A'             
     e(  3 -  3) =      1.51277  eV     1   --> A'             
     e(  4 -  4) =      3.86040  eV     1   --> A''            
     e(  5 -  5) =      7.52048  eV     1   --> A'             
     e(  6 -  6) =     11.53294  eV     1   --> A''            
     e(  7 -  7) =     11.68532  eV     1   --> A'             
     e(  8 -  8) =     11.91934  eV     1   --> A'             
     e(  9 -  9) =     13.60486  eV     1   --> A'             
     e( 10 - 10) =     14.12489  eV     1   --> A''            

 **************************************************************************

 **************************************************************************

                    xk=(   0.00767,   0.56733,   0.56733  )

     Band symmetry, C_s (m)     point group:

     e(  1 -  1) =     -4.60867  eV     1   --> A'             
     e(  2 -  2) =     -1.30216  eV     1   --> A'             
     e(  3 -  3) =      1.60542  eV     1   --> A'             
     e(  4 -  4) =      3.98099  eV     1   --> A''            
     e(  5 -  5) =      7.60695  eV     1   --> A'             
     e(  6 -  6) =     11.28528  eV     1   --> A''            
     e(  7 -  7) =     11.51095  eV     1   --> A'             
     e(  8 -  8) =     11.68679  eV     1   --> A'             
     e(  9 -  9) =     13.93262  eV     1   --> A''            
     e( 10 - 10) =     14.12269  eV     1   --> A'             

 **************************************************************************

 **************************************************************************

                    xk=(   0.00733,   0.54267,   0.54267  )

     Band symmetry, C_s (m)     point group:

     e(  1 -  1) =     -4.77474  eV     1   --> A'             
     e(  2 -  2) =     -1.09565  eV     1   --> A'             
     e(  3 -  3) =      1.71780  eV     1   --> A'             
     e(  4 -  4) =      4.10440  eV     1   --> A''            
     e(  5 -  5) =      7.68664  eV     1   --> A'             
     e(  6 -  6) =     11.04622  eV     1   --> A''            
     e(  7 -  7) =     11.33502  eV     1   --> A'             
     e(  8 -  8) =     11.47094  eV     1   --> A'             
     e(  9 -  9) =     13.75829  eV     1   --> A''            
     e( 10 - 10) =     14.63387  eV     1   --> A'             

 **************************************************************************

 **************************************************************************

                    xk=(   0.00700,   0.51800,   0.51800  )

     Band symmetry, C_s (m)     point group:

     e(  1 -  1) =     -4.94048  eV     1   --> A'             
     e(  2 -  2) =     -0.87786  eV     1   --> A'             
     e(  3 -  3) =      1.84840  eV     1   --> A'             
     e(  4 -  4) =      4.22975  eV     1   --> A''            
     e(  5 -  5) =      7.75674  eV     1   --> A'             
     e(  6 -  6) =     10.81615  eV     1   --> A''            
     e(  7 -  7) =     11.12998  eV     1   --> A'             
     e(  8 -  8) =     11.31146  eV     1   --> A'             
     e(  9 -  9) =     13.60277  eV     1   --> A''            
     e( 10 - 10) =     15.10600  eV     1   --> A'             

 **************************************************************************

 **************************************************************************

                    xk=(   0.00667,   0.49333,   0.49333  )

     Band symmetry, C_s (m)     point group:

     e(  1 -  1) =     -5.10446  eV     1   --> A'             
     e(  2 -  2) =     -0.64884  eV     1   --> A'             
     e(  3 -  3) =      1.99574  eV     1   --> A'             
     e(  4 -  4) =      4.35609  eV     1   --> A''            
     e(  5 -  5) =      7.81451  eV     1   --> A'             
     e(  6 -  6) =     10.59540  eV     1   --> A''            
     e(  7 -  7) =     10.90667  eV     1   --> A'             
     e(  8 -  8) =     11.20251  eV     1   --> A'             
     e(  9 -  9) =     13.46699  eV     1   --> A''            
     e( 10 - 10) =     15.50201  eV     1   --> A'             

 **************************************************************************

 **************************************************************************

                    xk=(   0.00633,   0.46867,   0.46867  )

     Band symmetry, C_s (m)     point group:

     e(  1 -  1) =     -5.26545  eV     1   --> A'             
     e(  2 -  2) =     -0.40866  eV     1   --> A'             
     e(  3 -  3) =      2.15849  eV     1   --> A'             
     e(  4 -  4) =      4.48243  eV     1   --> A''            
     e(  5 -  5) =      7.85749  eV     1   --> A'             
     e(  6 -  6) =     10.38424  eV     1   --> A''            
     e(  7 -  7) =     10.68436  eV     1   --> A'             
     e(  8 -  8) =     11.12690  eV     1   --> A'             
     e(  9 -  9) =     13.35188  eV     1   --> A''            
     e( 10 - 10) =     15.78085  eV     1   --> A'             

 **************************************************************************

 **************************************************************************

                    xk=(   0.00600,   0.44400,   0.44400  )

     Band symmetry, C_s (m)     point group:

     e(  1 -  1) =     -5.42234  eV     1   --> A'             
     e(  2 -  2) =     -0.15739  eV     1   --> A'             
     e(  3 -  3) =      2.33534  eV     1   --> A'             
     e(  4 -  4) =      4.60769  eV     1   --> A''            
     e(  5 -  5) =      7.88394  eV     1   --> A'             
     e(  6 -  6) =     10.18291  eV     1   --> A''            
     e(  7 -  7) =     10.46921  eV     1   --> A'             
     e(  8 -  8) =     11.07830  eV     1   --> A'             
     e(  9 -  9) =     13.25843  eV     1   --> A''            
     e( 10 - 10) =     15.91834  eV     1   --> A'             

 **************************************************************************

 **************************************************************************

                    xk=(   0.00567,   0.41933,   0.41933  )

     Band symmetry, C_s (m)     point group:

     e(  1 -  1) =     -5.57422  eV     1   --> A'             
     e(  2 -  2) =      0.10485  eV     1   --> A'             
     e(  3 -  3) =      2.52506  eV     1   --> A'             
     e(  4 -  4) =      4.73079  eV     1   --> A''            
     e(  5 -  5) =      7.89313  eV     1   --> A'             
     e(  6 -  6) =      9.99161  eV     1   --> A''            
     e(  7 -  7) =     10.26320  eV     1   --> A'             
     e(  8 -  8) =     11.05212  eV     1   --> A'             
     e(  9 -  9) =     13.18761  eV     1   --> A''            
     e( 10 - 10) =     15.92577  eV     1   --> A'             

 **************************************************************************

 **************************************************************************

                    xk=(   0.00533,   0.39467,   0.39467  )

     Band symmetry, C_s (m)     point group:

     e(  1 -  1) =     -5.72028  eV     1   --> A'             
     e(  2 -  2) =      0.37797  eV     1   --> A'             
     e(  3 -  3) =      2.72643  eV     1   --> A'             
     e(  4 -  4) =      4.85063  eV     1   --> A''            
     e(  5 -  5) =      7.88546  eV     1   --> A'             
     e(  6 -  6) =      9.81053  eV     1   --> A''            
     e(  7 -  7) =     10.06717  eV     1   --> A'             
     e(  8 -  8) =     11.04217  eV     1   --> A'             
     e(  9 -  9) =     13.14039  eV     1   --> A''            
     e( 10 - 10) =     15.83611  eV     1   --> A'             

 **************************************************************************

 **************************************************************************

                    xk=(   0.00500,   0.37000,   0.37000  )

     Band symmetry, C_s (m)     point group:

     e(  1 -  1) =     -5.85985  eV     1   --> A'             
     e(  2 -  2) =      0.66183  eV     1   --> A'             
     e(  3 -  3) =      2.93824  eV     1   --> A'             
     e(  4 -  4) =      4.96612  eV     1   --> A''            
     e(  5 -  5) =      7.86231  eV     1   --> A'             
     e(  6 -  6) =      9.63981  eV     1   --> A''            
     e(  7 -  7) =      9.88148  eV     1   --> A'             
     e(  8 -  8) =     11.03952  eV     1   --> A'             
     e(  9 -  9) =     13.11765  eV     1   --> A''            
     e( 10 - 10) =     15.67934  eV     1   --> A'             

 **************************************************************************

 **************************************************************************

                    xk=(   0.00467,   0.34533,   0.34533  )

     Band symmetry, C_s (m)     point group:

     e(  1 -  1) =     -5.99236  eV     1   --> A'             
     e(  2 -  2) =      0.95628  eV     1   --> A'             
     e(  3 -  3) =      3.15921  eV     1   --> A'             
     e(  4 -  4) =      5.07625  eV     1   --> A''            
     e(  5 -  5) =      7.82576  eV     1   --> A'             
     e(  6 -  6) =      9.47958  eV     1   --> A''            
     e(  7 -  7) =      9.70632  eV     1   --> A'             
     e(  8 -  8) =     11.03205  eV     1   --> A'             
     e(  9 -  9) =     13.12018  eV     1   --> A''            
     e( 10 - 10) =     15.45693  eV     1   --> A'             

 **************************************************************************

 **************************************************************************

[...]
     e(  6 -  6) =     10.83248  eV     1   --> A              
     e(  7 -  7) =     11.19273  eV     1   --> A              
     e(  8 -  8) =     11.67369  eV     1   --> A              
     e(  9 -  9) =     14.69966  eV     1   --> A              
     e( 10 - 10) =     16.19787  eV     1   --> A              

 **************************************************************************

 **************************************************************************

                    xk=(   0.00700,   0.81800,   0.51800  )

     Band symmetry, C_1 (1)     point group:

     e(  1 -  1) =     -3.76424  eV     1   --> A              
     e(  2 -  2) =     -2.18894  eV     1   --> A              
     e(  3 -  3) =      1.52571  eV     1   --> A              
     e(  4 -  4) =      2.74173  eV     1   --> A              
     e(  5 -  5) =      8.74641  eV     1   --> A              
     e(  6 -  6) =     10.53679  eV     1   --> A              
     e(  7 -  7) =     10.90188  eV     1   --> A              
     e(  8 -  8) =     11.86754  eV     1   --> A              
     e(  9 -  9) =     14.83724  eV     1   --> A              
     e( 10 - 10) =     16.34684  eV     1   --> A              

 **************************************************************************

 **************************************************************************

                    xk=(   0.00667,   0.82667,   0.49333  )

     Band symmetry, C_1 (1)     point group:

     e(  1 -  1) =     -3.76577  eV     1   --> A              
     e(  2 -  2) =     -2.18200  eV     1   --> A              
     e(  3 -  3) =      1.56593  eV     1   --> A              
     e(  4 -  4) =      2.66504  eV     1   --> A              
     e(  5 -  5) =      9.05394  eV     1   --> A              
     e(  6 -  6) =     10.23998  eV     1   --> A              
     e(  7 -  7) =     10.61749  eV     1   --> A              
     e(  8 -  8) =     12.07097  eV     1   --> A              
     e(  9 -  9) =     14.97499  eV     1   --> A              
     e( 10 - 10) =     16.49435  eV     1   --> A              

 **************************************************************************

 **************************************************************************

                    xk=(   0.00633,   0.83533,   0.46867  )

     Band symmetry, C_1 (1)     point group:

     e(  1 -  1) =     -3.76363  eV     1   --> A              
     e(  2 -  2) =     -2.18052  eV     1   --> A              
     e(  3 -  3) =      1.61211  eV     1   --> A              
     e(  4 -  4) =      2.59561  eV     1   --> A              
     e(  5 -  5) =      9.35662  eV     1   --> A              
     e(  6 -  6) =      9.94720  eV     1   --> A              
     e(  7 -  7) =     10.35293  eV     1   --> A              
     e(  8 -  8) =     12.27937  eV     1   --> A              
     e(  9 -  9) =     15.11261  eV     1   --> A              
     e( 10 - 10) =     16.63704  eV     1   --> A              

 **************************************************************************

 **************************************************************************

                    xk=(   0.00600,   0.84400,   0.44400  )

     Band symmetry, C_1 (1)     point group:

     e(  1 -  1) =     -3.75783  eV     1   --> A              
     e(  2 -  2) =     -2.18489  eV     1   --> A              
     e(  3 -  3) =      1.66399  eV     1   --> A              
     e(  4 -  4) =      2.53502  eV     1   --> A              
     e(  5 -  5) =      9.58084  eV     1   --> A              
     e(  6 -  6) =      9.67234  eV     1   --> A              
     e(  7 -  7) =     10.16944  eV     1   --> A              
     e(  8 -  8) =     12.49101  eV     1   --> A              
     e(  9 -  9) =     15.25001  eV     1   --> A              
     e( 10 - 10) =     16.77177  eV     1   --> A              

 **************************************************************************

 **************************************************************************

                    xk=(   0.00567,   0.85267,   0.41933  )

     Band symmetry, C_1 (1)     point group:

     e(  1 -  1) =     -3.74837  eV     1   --> A              
     e(  2 -  2) =     -2.19539  eV     1   --> A              
     e(  3 -  3) =      1.72127  eV     1   --> A              
     e(  4 -  4) =      2.48449  eV     1   --> A              
     e(  5 -  5) =      9.36911  eV     1   --> A              
     e(  6 -  6) =      9.57295  eV     1   --> A              
     e(  7 -  7) =     10.26768  eV     1   --> A              
     e(  8 -  8) =     12.70480  eV     1   --> A              
     e(  9 -  9) =     15.38726  eV     1   --> A              
     e( 10 - 10) =     16.89560  eV     1   --> A              

 **************************************************************************

 **************************************************************************

                    xk=(   0.00533,   0.86133,   0.39467  )

     Band symmetry, C_1 (1)     point group:

     e(  1 -  1) =     -3.73525  eV     1   --> A              
     e(  2 -  2) =     -2.21221  eV     1   --> A              
     e(  3 -  3) =      1.78359  eV     1   --> A              
     e(  4 -  4) =      2.44484  eV     1   --> A              
     e(  5 -  5) =      9.09518  eV     1   --> A              
     e(  6 -  6) =      9.35352  eV     1   --> A              
     e(  7 -  7) =     10.56988  eV     1   --> A              
     e(  8 -  8) =     12.91981  eV     1   --> A              
     e(  9 -  9) =     15.52459  eV     1   --> A              
     e( 10 - 10) =     17.00579  eV     1   --> A              

 **************************************************************************

 **************************************************************************

                    xk=(   0.00500,   0.87000,   0.37000  )

     Band symmetry, C_1 (1)     point group:

     e(  1 -  1) =     -3.71848  eV     1   --> A              
     e(  2 -  2) =     -2.23539  eV     1   --> A              
     e(  3 -  3) =      1.85053  eV     1   --> A              
     e(  4 -  4) =      2.41653  eV     1   --> A              
     e(  5 -  5) =      8.82772  eV     1   --> A              
     e(  6 -  6) =      9.10039  eV     1   --> A              
     e(  7 -  7) =     10.92147  eV     1   --> A              
     e(  8 -  8) =     13.13510  eV     1   --> A              
     e(  9 -  9) =     15.66241  eV     1   --> A              
     e( 10 - 10) =     17.09993  eV     1   --> A              

 **************************************************************************

 **************************************************************************

                    xk=(   0.00467,   0.87867,   0.34533  )

     Band symmetry, C_1 (1)     point group:

     e(  1 -  1) =     -3.69808  eV     1   --> A              
     e(  2 -  2) =     -2.26484  eV     1   --> A              
     e(  3 -  3) =      1.92160  eV     1   --> A              
     e(  4 -  4) =      2.39970  eV     1   --> A              
     e(  5 -  5) =      8.56854  eV     1   --> A              
     e(  6 -  6) =      8.84369  eV     1   --> A              
     e(  7 -  7) =     11.29089  eV     1   --> A              
     e(  8 -  8) =     13.34964  eV     1   --> A              
     e(  9 -  9) =     15.80129  eV     1   --> A              
     e( 10 - 10) =     17.17600  eV     1   --> A              

 **************************************************************************

 **************************************************************************

                    xk=(   0.00433,   0.88733,   0.32067  )

     Band symmetry, C_1 (1)     point group:

     e(  1 -  1) =     -3.67408  eV     1   --> A              
     e(  2 -  2) =     -2.30034  eV     1   --> A              
     e(  3 -  3) =      1.99621  eV     1   --> A              
     e(  4 -  4) =      2.39413  eV     1   --> A              
     e(  5 -  5) =      8.31866  eV     1   --> A              
     e(  6 -  6) =      8.59090  eV     1   --> A              
     e(  7 -  7) =     11.67001  eV     1   --> A              
     e(  8 -  8) =     13.56232  eV     1   --> A              
     e(  9 -  9) =     15.94191  eV     1   --> A              
     e( 10 - 10) =     17.23262  eV     1   --> A              

 **************************************************************************

 **************************************************************************

                    xk=(   0.00400,   0.89600,   0.29600  )

     Band symmetry, C_1 (1)     point group:

     e(  1 -  1) =     -3.64650  eV     1   --> A              
     e(  2 -  2) =     -2.34154  eV     1   --> A              
     e(  3 -  3) =      2.07364  eV     1   --> A              
     e(  4 -  4) =      2.39932  eV     1   --> A              
     e(  5 -  5) =      8.07904  eV     1   --> A              
     e(  6 -  6) =      8.34509  eV     1   --> A              
     e(  7 -  7) =     12.05517  eV     1   --> A              
     e(  8 -  8) =     13.77187  eV     1   --> A              
     e(  9 -  9) =     16.08508  eV     1   --> A              
     e( 10 - 10) =     17.26931  eV     1   --> A              

 **************************************************************************

 **************************************************************************

                    xk=(   0.00367,   0.90467,   0.27133  )

     Band symmetry, C_1 (1)     point group:

     e(  1 -  1) =     -3.61539  eV     1   --> A              
     e(  2 -  2) =     -2.38797  eV     1   --> A              
     e(  3 -  3) =      2.15308  eV     1   --> A              
     e(  4 -  4) =      2.41448  eV     1   --> A              
     e(  5 -  5) =      7.85074  eV     1   --> A              
     e(  6 -  6) =      8.10807  eV     1   --> A              
     e(  7 -  7) =     12.44377  eV     1   --> A              
     e(  8 -  8) =     13.97693  eV     1   --> A              
     e(  9 -  9) =     16.23159  eV     1   --> A              
     e( 10 - 10) =     17.28681  eV     1   --> A              

 **************************************************************************

 **************************************************************************

                    xk=(   0.00333,   0.91333,   0.24667  )

     Band symmetry, C_1 (1)     point group:

     e(  1 -  1) =     -3.58080  eV     1   --> A              
     e(  2 -  2) =     -2.43906  eV     1   --> A              
     e(  3 -  3) =      2.23354  eV     1   --> A              
     e(  4 -  4) =      2.43854  eV     1   --> A              
     e(  5 -  5) =      7.63492  eV     1   --> A              
     e(  6 -  6) =      7.88130  eV     1   --> A              
     e(  7 -  7) =     12.83331  eV     1   --> A              
     e(  8 -  8) =     14.17601  eV     1   --> A              
     e(  9 -  9) =     16.38221  eV     1   --> A              
     e( 10 - 10) =     17.28734  eV     1   --> A              

 **************************************************************************

 **************************************************************************

                    xk=(   0.00300,   0.92200,   0.22200  )

     Band symmetry, C_1 (1)     point group:

     e(  1 -  1) =     -3.54281  eV     1   --> A              
     e(  2 -  2) =     -2.49421  eV     1   --> A              
     e(  3 -  3) =      2.31386  eV     1   --> A              
     e(  4 -  4) =      2.47016  eV     1   --> A              
     e(  5 -  5) =      7.43291  eV     1   --> A              
     e(  6 -  6) =      7.66614  eV     1   --> A              
     e(  7 -  7) =     13.22088  eV     1   --> A              
     e(  8 -  8) =     14.36754  eV     1   --> A              
     e(  9 -  9) =     16.53745  eV     1   --> A              
     e( 10 - 10) =     17.27461  eV     1   --> A              

 **************************************************************************

 **************************************************************************

                    xk=(   0.00267,   0.93067,   0.19733  )

     Band symmetry, C_1 (1)     point group:

     e(  1 -  1) =     -3.50150  eV     1   --> A              
     e(  2 -  2) =     -2.55276  eV     1   --> A              
     e(  3 -  3) =      2.39270  eV     1   --> A              
     e(  4 -  4) =      2.50775  eV     1   --> A              
     e(  5 -  5) =      7.24623  eV     1   --> A              
     e(  6 -  6) =      7.46400  eV     1   --> A              
     e(  7 -  7) =     13.60275  eV     1   --> A              
     e(  8 -  8) =     14.54996  eV     1   --> A              
     e(  9 -  9) =     16.69738  eV     1   --> A              
     e( 10 - 10) =     17.25368  eV     1   --> A              

 **************************************************************************

 **************************************************************************

                    xk=(   0.00233,   0.93933,   0.17267  )

     Band symmetry, C_1 (1)     point group:

     e(  1 -  1) =     -3.45697  eV     1   --> A              
     e(  2 -  2) =     -2.61404  eV     1   --> A              
     e(  3 -  3) =      2.46852  eV     1   --> A              
     e(  4 -  4) =      2.54948  eV     1   --> A              
     e(  5 -  5) =      7.07660  eV     1   --> A              
     e(  6 -  6) =      7.27643  eV     1   --> A              
     e(  7 -  7) =     13.97381  eV     1   --> A              
     e(  8 -  8) =     14.72165  eV     1   --> A              
     e(  9 -  9) =     16.86132  eV     1   --> A              
     e( 10 - 10) =     17.23089  eV     1   --> A              

 **************************************************************************

 **************************************************************************

                    xk=(   0.00200,   0.94800,   0.14800  )

     Band symmetry, C_1 (1)     point group:

     e(  1 -  1) =     -3.40933  eV     1   --> A              
     e(  2 -  2) =     -2.67739  eV     1   --> A              
     e(  3 -  3) =      2.53957  eV     1   --> A              
     e(  4 -  4) =      2.59329  eV     1   --> A              
     e(  5 -  5) =      6.92593  eV     1   --> A              
     e(  6 -  6) =      7.10512  eV     1   --> A              
     e(  7 -  7) =     14.32680  eV     1   --> A              
     e(  8 -  8) =     14.88103  eV     1   --> A              
     e(  9 -  9) =     17.02711  eV     1   --> A              
     e( 10 - 10) =     17.21412  eV     1   --> A              

 **************************************************************************

 **************************************************************************

                    xk=(   0.00167,   0.95667,   0.12333  )

     Band symmetry, C_1 (1)     point group:

     e(  1 -  1) =     -3.35873  eV     1   --> A              
     e(  2 -  2) =     -2.74218  eV     1   --> A              
     e(  3 -  3) =      2.60398  eV     1   --> A              
     e(  4 -  4) =      2.63689  eV     1   --> A              
     e(  5 -  5) =      6.79627  eV     1   --> A              
     e(  6 -  6) =      6.95199  eV     1   --> A              
     e(  7 -  7) =     14.65166  eV     1   --> A              
     e(  8 -  8) =     15.02639  eV     1   --> A              
     e(  9 -  9) =     17.18394  eV     1   --> A              
     e( 10 - 10) =     17.21952  eV     1   --> A              

 **************************************************************************

 **************************************************************************

                    xk=(   0.00133,   0.96533,   0.09867  )

     Band symmetry, C_1 (1)     point group:

     e(  1 -  1) =     -3.30534  eV     1   --> A              
     e(  2 -  2) =     -2.80780  eV     1   --> A              
     e(  3 -  3) =      2.65981  eV     1   --> A              
     e(  4 -  4) =      2.67781  eV     1   --> A              
     e(  5 -  5) =      6.68977  eV     1   --> A              
     e(  6 -  6) =      6.81907  eV     1   --> A              
     e(  7 -  7) =     14.93505  eV     1   --> A              
     e(  8 -  8) =     15.15575  eV     1   --> A              
     e(  9 -  9) =     17.23005  eV     1   --> A              
     e( 10 - 10) =     17.35229  eV     1   --> A              

 **************************************************************************

 **************************************************************************

                    xk=(   0.00100,   0.97400,   0.07400  )

     Band symmetry, C_1 (1)     point group:

     e(  1 -  1) =     -3.24934  eV     1   --> A              
     e(  2 -  2) =     -2.87370  eV     1   --> A              
     e(  3 -  3) =      2.70521  eV     1   --> A              
     e(  4 -  4) =      2.71353  eV     1   --> A              
     e(  5 -  5) =      6.60847  eV     1   --> A              
     e(  6 -  6) =      6.70851  eV     1   --> A              
     e(  7 -  7) =     15.16206  eV     1   --> A              
     e(  8 -  8) =     15.26647  eV     1   --> A              
     e(  9 -  9) =     17.28672  eV     1   --> A              
     e( 10 - 10) =     17.48805  eV     1   --> A              

 **************************************************************************

 **************************************************************************

                    xk=(   0.00067,   0.98267,   0.04933  )

     Band symmetry, C_1 (1)     point group:

     e(  1 -  1) =     -3.19097  eV     1   --> A              
     e(  2 -  2) =     -2.93936  eV     1   --> A              
     e(  3 -  3) =      2.73861  eV     1   --> A              
     e(  4 -  4) =      2.74151  eV     1   --> A              
     e(  5 -  5) =      6.55416  eV     1   --> A              
     e(  6 -  6) =      6.62245  eV     1   --> A              
     e(  7 -  7) =     15.32110  eV     1   --> A              
     e(  8 -  8) =     15.35466  eV     1   --> A              
     e(  9 -  9) =     17.37720  eV     1   --> A              
     e( 10 - 10) =     17.58525  eV     1   --> A              

 **************************************************************************

 **************************************************************************

                    xk=(   0.00033,   0.99133,   0.02467  )

     Band symmetry, C_1 (1)     point group:

     e(  1 -  1) =     -3.13047  eV     1   --> A              
     e(  2 -  2) =     -3.00431  eV     1   --> A              
     e(  3 -  3) =      2.75894  eV     1   --> A              
     e(  4 -  4) =      2.75950  eV     1   --> A              
     e(  5 -  5) =      6.52815  eV     1   --> A              
     e(  6 -  6) =      6.56281  eV     1   --> A              
     e(  7 -  7) =     15.40998  eV     1   --> A              
     e(  8 -  8) =     15.41438  eV     1   --> A              
     e(  9 -  9) =     17.48637  eV     1   --> A              
     e( 10 - 10) =     17.61983  eV     1   --> A              

 **************************************************************************

 **************************************************************************

                    xk=(   0.00000,   1.00000,   0.00000  )

     zone border point and non-symmorphic group 
     symmetry decomposition not available

 **************************************************************************

     BANDS        :     35.87s CPU     18.44s WALL


   This run was terminated on:  16:19:12  10Dec2024            

=------------------------------------------------------------------------------=
   JOB DONE.
=------------------------------------------------------------------------------=
