
     Program PWSCF v.7.0 starts on 10Dec2024 at 16: 7:31 

     This program is part of the open-source Quantum ESPRESSO suite
     for quantum simulation of materials; please cite
         "P. Giannozzi et al., J. Phys.:Condens. Matter 21 395502 (2009);
         "P. Giannozzi et al., J. Phys.:Condens. Matter 29 465901 (2017);
         "P. Giannozzi et al., J. Chem. Phys. 152 154105 (2020);
          URL http://www.quantum-espresso.org", 
     in publications or presentations arising from this work. More details at
     http://www.quantum-espresso.org/quote

     Parallel version (MPI & OpenMP), running on       2 processor cores
     Number of MPI processes:                 1
     Threads/MPI process:                     2

     MPI processes distributed on     1 nodes
     168 MiB available memory on the printing compute node when the environment starts

     Reading input from basicbands.in

     Current dimensions of program PWSCF are:
     Max number of different atomic species (ntypx) = 10
     Max number of k-points (npk) =  40000
     Max angular momentum in pseudopotentials (lmaxx) =  4
     Message from routine volume:
     axis vectors are left-handed

     Atomic positions and unit cell read from directory:
     ./outputs/basic.save/

     Message from routine volume:
     axis vectors are left-handed

     IMPORTANT: XC functional enforced from input :
     Exchange-correlation= PBE
                           (   1   4   3   4   0   0   0)
     Any further DFT definition will be discarded
     Please, verify this is what you really want

     Message from routine setup:
     using ibrav=0 with symmetry is DISCOURAGED, use correct ibrav instead

     Subspace diagonalization in iterative solution of the eigenvalue problem:
     a serial algorithm will be used


     G-vector sticks info
     --------------------
     sticks:   dense  smooth     PW     G-vecs:    dense   smooth      PW
     Sum         793     793    241                14553    14553    2421

     Using Slab Decomposition



     bravais-lattice index     =            0
     lattice parameter (alat)  =      10.6908  a.u.
     unit-cell volume          =     305.4751 (a.u.)^3
     number of atoms/cell      =            2
     number of atomic types    =            1
     number of electrons       =         8.00
     number of Kohn-Sham states=           10
     kinetic-energy cutoff     =      50.0000  Ry
     charge density cutoff     =     200.0000  Ry
     Exchange-correlation= PBE
                           (   1   4   3   4   0   0   0)

     celldm(1)=  10.690842  celldm(2)=   0.000000  celldm(3)=   0.000000
     celldm(4)=   0.000000  celldm(5)=   0.000000  celldm(6)=   0.000000

     crystal axes: (cart. coord. in units of alat)
               a(1) = (   0.500000   0.500000   0.000000 )  
               a(2) = (   0.500000   0.000000   0.500000 )  
               a(3) = (   0.000000   0.500000   0.500000 )  

     reciprocal axes: (cart. coord. in units 2 pi/alat)
               b(1) = (  1.000000  1.000000 -1.000000 )  
               b(2) = (  1.000000 -1.000000  1.000000 )  
               b(3) = ( -1.000000  1.000000  1.000000 )  


     PseudoPot. # 1 for Ge read from file:
     ./Ge.pbe-n-kjpaw_psl.1.0.0.UPF
     MD5 check sum: 86cd6a1ce4ead6fa7a4673d64b86017a
     Pseudo is Projector augmented-wave + core cor, Zval =  4.0
     Generated using &quot;atomic&quot; code by A. Dal Corso  v.6.3
     Shape of augmentation charge: PSQ
     Using radial grid of 1207 points,  4 beta functions with: 
                l(1) =   0
                l(2) =   0
                l(3) =   1
                l(4) =   1
     Q(r) pseudized with 0 coefficients 


     atomic species   valence    mass     pseudopotential
        Ge             4.00    72.63000     Ge( 1.00)

     48 Sym. Ops., with inversion, found (24 have fractional translation)



   Cartesian axes

     site n.     atom                  positions (alat units)
         1           Ge  tau(   1) = (   0.0000000   0.0000000   0.0000000  )
         2           Ge  tau(   2) = (   0.2500000   0.2500000   0.2500000  )

     number of k points=   301  Marzari-Vanderbilt smearing, width (Ry)=  0.0050

     Number of k-points >= 100: set verbosity='high' to print them.

     Dense  grid:    14553 G-vectors     FFT dimensions: (  36,  36,  36)

     Estimated max dynamical RAM per process >      16.16 MB

     The potential is recalculated from file :
     ./outputs/basic.save/charge-density

     Starting wfcs are    8 randomized atomic wfcs +    2 random wfcs
     Checking if some PAW data can be deallocated... 

     Band Structure Calculation
     Davidson diagonalization with overlap

     ethr =  1.25E-10,  avg # of iterations = 27.5

     total cpu time spent up to now is      443.4 secs

     End of band structure calculation

     Number of k-points >= 100: set verbosity='high' to print the bands.

     Writing all to output data dir ./outputs/basic.save/

     init_run     :      0.83s CPU      0.77s WALL (       1 calls)
     electrons    :    556.18s CPU    442.48s WALL (       1 calls)

     Called by init_run:
     wfcinit      :      0.00s CPU      0.00s WALL (       1 calls)
     potinit      :      0.10s CPU      0.06s WALL (       1 calls)
     hinit0       :      0.64s CPU      0.62s WALL (       1 calls)

     Called by electrons:
     c_bands      :    556.18s CPU    442.48s WALL (       1 calls)
     v_of_rho     :      0.02s CPU      0.01s WALL (       1 calls)
     newd         :      0.02s CPU      0.02s WALL (       1 calls)
     PAW_pot      :      0.08s CPU      0.04s WALL (       1 calls)

     Called by c_bands:
     init_us_2    :      0.50s CPU      0.49s WALL (     301 calls)
     init_us_2:cp :      0.50s CPU      0.49s WALL (     301 calls)
     cegterg      :    533.95s CPU    441.79s WALL (     602 calls)

     Called by *egterg:
     cdiaghg      :      1.80s CPU      1.34s WALL (    8589 calls)
     h_psi        :    335.55s CPU    187.89s WALL (    9191 calls)
     s_psi        :     11.11s CPU     10.30s WALL (    9191 calls)
     g_psi        :     23.51s CPU     20.50s WALL (    8288 calls)

     Called by h_psi:
     h_psi:calbec :     57.42s CPU     47.13s WALL (    9191 calls)
     vloc_psi     :    259.71s CPU    125.96s WALL (    9191 calls)
     add_vuspsi   :      2.44s CPU      1.50s WALL (    9191 calls)

     General routines
     calbec       :     57.37s CPU     47.10s WALL (    9191 calls)
     fft          :      0.49s CPU      0.46s WALL (      12 calls)
     fftw         :    234.46s CPU    139.60s WALL (  108690 calls)
     davcio       :      0.22s CPU      0.14s WALL (     602 calls)

     Parallel routines

     PWSCF        :   9m17.97s CPU   7m24.25s WALL


   This run was terminated on:  16:14:55  10Dec2024            

=------------------------------------------------------------------------------=
   JOB DONE.
=------------------------------------------------------------------------------=
