
     Program BANDS v.7.0 starts on  6Jan2025 at  1:56:59 

     This program is part of the open-source Quantum ESPRESSO suite
     for quantum simulation of materials; please cite
         "P. Giannozzi et al., J. Phys.:Condens. Matter 21 395502 (2009);
         "P. Giannozzi et al., J. Phys.:Condens. Matter 29 465901 (2017);
         "P. Giannozzi et al., J. Chem. Phys. 152 154105 (2020);
          URL http://www.quantum-espresso.org", 
     in publications or presentations arising from this work. More details at
     http://www.quantum-espresso.org/quote

     Parallel version (MPI & OpenMP), running on       2 processor cores
     Number of MPI processes:                 2
     Threads/MPI process:                     1

     MPI processes distributed on     1 nodes
     R & G space division:  proc/nbgrp/npool/nimage =       2
     449 MiB available memory on the printing compute node when the environment starts


     Reading xml data from directory:

     ./outputs/gaalas_sl.save/
     file Al.pbe-n-kjpaw_psl.1.0.0.UPF: wavefunction(s)  3S 3P renormalized
     file Ga.pbe-dn-kjpaw_psl.1.0.0.UPF: wavefunction(s)  4S renormalized

     IMPORTANT: XC functional enforced from input :
     Exchange-correlation= PBE
                           (   1   4   3   4   0   0   0)
     Any further DFT definition will be discarded
     Please, verify this is what you really want


     Parallelization info
     --------------------
     sticks:   dense  smooth     PW     G-vecs:    dense   smooth      PW
     Min         546     546    158                67962    67962   10514
     Max         547     547    159                67965    67965   10519
     Sum        1093    1093    317               135927   135927   21033

     Using Slab Decomposition


     Check: negative core charge=   -0.000007
     Reading collected, re-writing distributed wavefunctions
     high-symmetry point:  0.5000 0.5000 0.1000   x coordinate   0.0000
     high-symmetry point:  0.0000 0.0000 0.0000   x coordinate   0.7141
     high-symmetry point:  0.5000 0.0000 0.1000   x coordinate   1.2240
     high-symmetry point:  0.0000 0.0000 0.0000   x coordinate   1.7339

     Plottable bands (eV) written to file GaAlAs_n2_sl_bands.dat.gnu
     Bands written to file GaAlAs_n2_sl_bands.dat

 **************************************************************************

                    xk=(   0.50000,   0.50000,   0.10000  )

     point group C_2v (mm2) 
     there are  4 classes
     the character table:

       E     C2    s_v   s_v' 
A_1    1.00  1.00  1.00  1.00
A_2    1.00  1.00 -1.00 -1.00
B_1    1.00 -1.00  1.00 -1.00
B_2    1.00 -1.00 -1.00  1.00

     the symmetry operations in each class and the name of the first element:

     E        1
                                                                 
     C2       2
                                                                 
     s_v      3
                                                                 
     s_v'     4
                                                                 

     Band symmetry, C_2v (mm2)  point group:

     e(  1 -  2) =     -9.07556  eV     2   --> A_1  D_1  S_1  
     e(  1 -  2) =     -9.07556  eV     2   --> B_2  D_4  S_4  
     e(  3 -  3) =     -9.07539  eV     1   --> B_2  D_4  S_4  
     e(  4 -  4) =     -9.07525  eV     1   --> A_1  D_1  S_1  
     e(  5 -  5) =     -9.04218  eV     1   --> A_1  D_1  S_1  
     e(  6 -  6) =     -9.04197  eV     1   --> B_1  D_3  S_3  
     e(  7 -  7) =     -9.04109  eV     1   --> B_1  D_3  S_3  
     e(  8 -  8) =     -9.04092  eV     1   --> A_1  D_1  S_1  
     e(  9 -  9) =     -9.01423  eV     1   --> B_1  D_3  S_3  
     e( 10 - 10) =     -9.01412  eV     1   --> A_1  D_1  S_1  
     e( 11 - 11) =     -9.01344  eV     1   --> B_1  D_3  S_3  
     e( 12 - 12) =     -9.01291  eV     1   --> A_1  D_1  S_1  
     e( 13 - 13) =     -8.98172  eV     1   --> B_2  D_4  S_4  
     e( 14 - 14) =     -8.98154  eV     1   --> A_1  D_1  S_1  
     e( 15 - 15) =     -8.98124  eV     1   --> B_2  D_4  S_4  
     e( 16 - 16) =     -8.98087  eV     1   --> A_1  D_1  S_1  
     e( 17 - 17) =     -8.97963  eV     1   --> A_2  D_2  S_2  
     e( 18 - 19) =     -8.97952  eV     2   --> A_2  D_2  S_2  
     e( 18 - 19) =     -8.97952  eV     2   --> B_2  D_4  S_4  
     e( 20 - 20) =     -8.97923  eV     1   --> B_1  D_3  S_3  
     e( 21 - 21) =     -8.97902  eV     1   --> B_2  D_4  S_4  
     e( 22 - 22) =     -8.97883  eV     1   --> A_2  D_2  S_2  
     e( 23 - 23) =     -8.97838  eV     1   --> B_1  D_3  S_3  
     e( 24 - 24) =     -8.97821  eV     1   --> A_2  D_2  S_2  
     e( 25 - 25) =     -8.93270  eV     1   --> B_1  D_3  S_3  
     e( 26 - 26) =     -8.93259  eV     1   --> A_1  D_1  S_1  
     e( 27 - 27) =     -8.93202  eV     1   --> B_1  D_3  S_3  
     e( 28 - 28) =     -8.93183  eV     1   --> B_1  D_3  S_3  
     e( 29 - 29) =     -8.93169  eV     1   --> A_2  D_2  S_2  
     e( 30 - 30) =     -8.93085  eV     1   --> B_1  D_3  S_3  
     e( 31 - 31) =     -8.93065  eV     1   --> A_1  D_1  S_1  
     e( 32 - 32) =     -8.93054  eV     1   --> B_2  D_4  S_4  
     e( 33 - 33) =     -8.93044  eV     1   --> A_1  D_1  S_1  
     e( 34 - 34) =     -8.93033  eV     1   --> A_2  D_2  S_2  
     e( 35 - 35) =     -8.92987  eV     1   --> B_2  D_4  S_4  
     e( 36 - 36) =     -8.92880  eV     1   --> B_2  D_4  S_4  
     e( 37 - 38) =     -8.92865  eV     2   --> A_1  D_1  S_1  
     e( 37 - 38) =     -8.92865  eV     2   --> A_2  D_2  S_2  
     e( 39 - 39) =     -8.92790  eV     1   --> B_2  D_4  S_4  
     e( 40 - 40) =     -8.92743  eV     1   --> A_2  D_2  S_2  
     e( 41 - 41) =     -5.22561  eV     1   --> B_1  D_3  S_3  
     e( 42 - 42) =     -5.22530  eV     1   --> A_1  D_1  S_1  
     e( 43 - 43) =     -5.22107  eV     1   --> B_1  D_3  S_3  
     e( 44 - 44) =     -5.22067  eV     1   --> A_1  D_1  S_1  
     e( 45 - 46) =     -5.18103  eV     2   --> A_1  D_1  S_1  
     e( 45 - 46) =     -5.18103  eV     2   --> B_2  D_4  S_4  
     e( 47 - 48) =     -5.17357  eV     2   --> A_1  D_1  S_1  
     e( 47 - 48) =     -5.17357  eV     2   --> B_2  D_4  S_4  
     e( 49 - 50) =     -5.06819  eV     2   --> A_1  D_1  S_1  
     e( 49 - 50) =     -5.06819  eV     2   --> B_2  D_4  S_4  
     e( 51 - 52) =     -5.06064  eV     2   --> A_1  D_1  S_1  
     e( 51 - 52) =     -5.06064  eV     2   --> B_1  D_3  S_3  
     e( 53 - 54) =     -5.04259  eV     2   --> A_1  D_1  S_1  
     e( 53 - 54) =     -5.04259  eV     2   --> B_2  D_4  S_4  
     e( 55 - 56) =     -5.02585  eV     2   --> A_1  D_1  S_1  
     e( 55 - 56) =     -5.02585  eV     2   --> B_2  D_4  S_4  
     e( 57 - 57) =     -4.97255  eV     1   --> A_1  D_1  S_1  
     e( 58 - 58) =     -4.97215  eV     1   --> B_1  D_3  S_3  
     e( 59 - 59) =     -4.96554  eV     1   --> A_1  D_1  S_1  
     e( 60 - 60) =     -4.96520  eV     1   --> B_1  D_3  S_3  
     e( 61 - 61) =     -0.54773  eV     1   --> B_2  D_4  S_4  
     e( 62 - 62) =     -0.54760  eV     1   --> A_1  D_1  S_1  
     e( 63 - 64) =     -0.53833  eV     2   --> A_1  D_1  S_1  
     e( 63 - 64) =     -0.53833  eV     2   --> B_1  D_3  S_3  
     e( 65 - 65) =     -0.44315  eV     1   --> B_2  D_4  S_4  
     e( 66 - 66) =     -0.44296  eV     1   --> A_1  D_1  S_1  
     e( 67 - 67) =     -0.42749  eV     1   --> B_1  D_3  S_3  
     e( 68 - 68) =     -0.42734  eV     1   --> A_1  D_1  S_1  
     e( 69 - 70) =      0.09435  eV     2   --> A_1  D_1  S_1  
     e( 69 - 70) =      0.09435  eV     2   --> B_1  D_3  S_3  
     e( 71 - 72) =      0.10770  eV     2   --> A_1  D_1  S_1  
     e( 71 - 72) =      0.10770  eV     2   --> B_2  D_4  S_4  
     e( 73 - 73) =      0.51164  eV     1   --> A_1  D_1  S_1  
     e( 74 - 74) =      0.51175  eV     1   --> B_1  D_3  S_3  
     e( 75 - 75) =      0.53617  eV     1   --> A_1  D_1  S_1  
     e( 76 - 76) =      0.53637  eV     1   --> B_2  D_4  S_4  
     e( 77 - 78) =      0.63220  eV     2   --> A_1  D_1  S_1  
     e( 77 - 78) =      0.63220  eV     2   --> B_1  D_3  S_3  
     e( 79 - 80) =      0.65621  eV     2   --> A_1  D_1  S_1  
     e( 79 - 80) =      0.65621  eV     2   --> B_2  D_4  S_4  
     e( 81 - 82) =      2.73388  eV     2   --> A_1  D_1  S_1  
     e( 81 - 82) =      2.73388  eV     2   --> B_1  D_3  S_3  
     e( 83 - 84) =      2.74924  eV     2   --> A_1  D_1  S_1  
     e( 83 - 84) =      2.74924  eV     2   --> B_2  D_4  S_4  
     e( 85 - 86) =      2.78132  eV     2   --> A_1  D_1  S_1  
     e( 85 - 86) =      2.78132  eV     2   --> B_2  D_4  S_4  
     e( 87 - 88) =      2.78237  eV     2   --> A_1  D_1  S_1  
     e( 87 - 88) =      2.78237  eV     2   --> B_1  D_3  S_3  
     e( 89 - 90) =      3.79627  eV     2   --> A_1  D_1  S_1  
     e( 89 - 90) =      3.79627  eV     2   --> B_1  D_3  S_3  
     e( 91 - 92) =      3.84500  eV     2   --> A_1  D_1  S_1  
     e( 91 - 92) =      3.84500  eV     2   --> B_2  D_4  S_4  
     e( 93 - 94) =      3.94893  eV     2   --> A_1  D_1  S_1  
     e( 93 - 94) =      3.94893  eV     2   --> B_2  D_4  S_4  
     e( 95 - 95) =      4.01593  eV     1   --> B_1  D_3  S_3  
     e( 96 - 96) =      4.01603  eV     1   --> A_1  D_1  S_1  
     e( 97 - 98) =      4.55025  eV     2   --> A_2  D_2  S_2  
     e( 97 - 98) =      4.55025  eV     2   --> B_2  D_4  S_4  
     e( 99 -100) =      4.55971  eV     2   --> A_2  D_2  S_2  
     e( 99 -100) =      4.55971  eV     2   --> B_1  D_3  S_3  
     e(101 -102) =      4.57343  eV     2   --> A_2  D_2  S_2  
     e(101 -102) =      4.57343  eV     2   --> B_2  D_4  S_4  
     e(103 -104) =      4.58918  eV     2   --> A_2  D_2  S_2  
     e(103 -104) =      4.58918  eV     2   --> B_2  D_4  S_4  
     e(105 -105) =      4.62575  eV     1   --> B_1  D_3  S_3  
     e(106 -106) =      4.62609  eV     1   --> A_2  D_2  S_2  
     e(107 -107) =      4.63784  eV     1   --> B_1  D_3  S_3  
     e(108 -108) =      4.63815  eV     1   --> A_2  D_2  S_2  
     e(109 -110) =      4.68619  eV     2   --> A_1  D_1  S_1  
     e(109 -110) =      4.68619  eV     2   --> B_2  D_4  S_4  
     e(111 -112) =      4.69617  eV     2   --> A_1  D_1  S_1  
     e(111 -112) =      4.69617  eV     2   --> B_1  D_3  S_3  
     e(113 -113) =      4.71998  eV     1   --> A_2  D_2  S_2  
     e(114 -114) =      4.72032  eV     1   --> B_1  D_3  S_3  
     e(115 -115) =      4.72874  eV     1   --> A_2  D_2  S_2  
     e(116 -116) =      4.72907  eV     1   --> B_1  D_3  S_3  
     e(117 -118) =      4.75670  eV     2   --> A_2  D_2  S_2  
     e(117 -118) =      4.75670  eV     2   --> B_2  D_4  S_4  
     e(119 -120) =      4.76032  eV     2   --> A_2  D_2  S_2  
     e(119 -120) =      4.76032  eV     2   --> B_2  D_4  S_4  
     e(121 -122) =      7.22424  eV     2   --> A_1  D_1  S_1  
     e(121 -122) =      7.22424  eV     2   --> B_2  D_4  S_4  
     e(123 -124) =      7.26405  eV     2   --> A_1  D_1  S_1  
     e(123 -124) =      7.26405  eV     2   --> B_1  D_3  S_3  
     e(125 -126) =      7.75292  eV     2   --> A_1  D_1  S_1  
     e(125 -126) =      7.75292  eV     2   --> B_2  D_4  S_4  
     e(127 -127) =      7.81998  eV     1   --> B_1  D_3  S_3  
     e(128 -128) =      7.82017  eV     1   --> A_1  D_1  S_1  
     e(129 -129) =      8.23332  eV     1   --> A_1  D_1  S_1  
     e(130 -130) =      8.23344  eV     1   --> B_1  D_3  S_3  
     e(131 -132) =      8.25297  eV     2   --> A_1  D_1  S_1  
     e(131 -132) =      8.25297  eV     2   --> B_2  D_4  S_4  
     e(133 -133) =      8.76478  eV     1   --> A_1  D_1  S_1  
     e(134 -134) =      8.76496  eV     1   --> B_1  D_3  S_3  
     e(135 -136) =      8.76775  eV     2   --> A_1  D_1  S_1  
     e(135 -136) =      8.76775  eV     2   --> B_2  D_4  S_4  
     e(137 -138) =      8.80032  eV     2   --> A_1  D_1  S_1  
     e(137 -138) =      8.80032  eV     2   --> B_1  D_3  S_3  
     e(139 -140) =      8.81172  eV     2   --> A_1  D_1  S_1  
     e(139 -140) =      8.81172  eV     2   --> B_2  D_4  S_4  
     e(141 -142) =     10.03164  eV     2   --> A_1  D_1  S_1  
     e(141 -142) =     10.03164  eV     2   --> B_2  D_4  S_4  
     e(143 -143) =     10.05627  eV     1   --> A_1  D_1  S_1  
     e(144 -144) =     10.05638  eV     1   --> B_1  D_3  S_3  

 **************************************************************************

 **************************************************************************

                    xk=(   0.46875,   0.46875,   0.09375  )

     point group C_s (m)    
     there are  2 classes
     the character table:

       E     s    
A'     1.00  1.00
A''    1.00 -1.00

     the symmetry operations in each class and the name of the first element:

     E        1
                                                                 
     s        2
                                                                 

     Band symmetry, C_s (m)     point group:

     e(  1 -  1) =     -9.07565  eV     1   --> A'             
     e(  2 -  4) =     -9.07547  eV     3   -->   3 A'             
     e(  5 -  6) =     -9.04183  eV     2   --> A'             
     e(  5 -  6) =     -9.04183  eV     2   --> A''            
     e(  7 -  7) =     -9.04098  eV     1   --> A''            
     e(  8 -  8) =     -9.04052  eV     1   --> A'             
     e(  9 -  9) =     -9.01426  eV     1   --> A''            
     e( 10 - 10) =     -9.01406  eV     1   --> A'             
     e( 11 - 11) =     -9.01350  eV     1   --> A''            
     e( 12 - 12) =     -9.01288  eV     1   --> A'             
     e( 13 - 13) =     -8.98160  eV     1   --> A'             
     e( 14 - 14) =     -8.98140  eV     1   --> A'             
     e( 15 - 15) =     -8.98129  eV     1   --> A'             
     e( 16 - 16) =     -8.98080  eV     1   --> A'             
     e( 17 - 17) =     -8.98025  eV     1   --> A''            
     e( 18 - 18) =     -8.98013  eV     1   --> A''            
     e( 19 - 19) =     -8.97930  eV     1   --> A''            
     e( 20 - 20) =     -8.97914  eV     1   --> A'             
     e( 21 - 21) =     -8.97875  eV     1   --> A'             
     e( 22 - 22) =     -8.97812  eV     1   --> A''            
     e( 23 - 23) =     -8.97775  eV     1   --> A''            
     e( 24 - 24) =     -8.97760  eV     1   --> A''            
     e( 25 - 26) =     -8.93280  eV     2   --> A'             
     e( 25 - 26) =     -8.93280  eV     2   --> A''            
     e( 27 - 27) =     -8.93258  eV     1   --> A''            
     e( 28 - 28) =     -8.93158  eV     1   --> A''            
     e( 29 - 30) =     -8.93116  eV     2   --> A'             
     e( 29 - 30) =     -8.93116  eV     2   --> A''            
     e( 31 - 32) =     -8.93063  eV     2   --> A'             
     e( 31 - 32) =     -8.93063  eV     2   --> A''            
     e( 33 - 34) =     -8.93022  eV     2   --> A'             
     e( 33 - 34) =     -8.93022  eV     2   --> A''            
     e( 35 - 35) =     -8.92996  eV     1   --> A'             
     e( 36 - 36) =     -8.92942  eV     1   --> A'             
     e( 37 - 37) =     -8.92840  eV     1   --> A''            
     e( 38 - 38) =     -8.92802  eV     1   --> A'             
     e( 39 - 39) =     -8.92773  eV     1   --> A'             
     e( 40 - 40) =     -8.92720  eV     1   --> A''            
     e( 41 - 41) =     -5.32420  eV     1   --> A'             
     e( 42 - 42) =     -5.31154  eV     1   --> A'             
     e( 43 - 43) =     -5.21943  eV     1   --> A''            
     e( 44 - 44) =     -5.21502  eV     1   --> A''            
     e( 45 - 45) =     -5.17469  eV     1   --> A'             
     e( 46 - 46) =     -5.17101  eV     1   --> A'             
     e( 47 - 47) =     -5.16750  eV     1   --> A'             
     e( 48 - 48) =     -5.15621  eV     1   --> A'             
     e( 49 - 49) =     -5.10960  eV     1   --> A'             
     e( 50 - 50) =     -5.06331  eV     1   --> A'             
     e( 51 - 51) =     -5.05580  eV     1   --> A''            
     e( 52 - 52) =     -5.04132  eV     1   --> A'             
     e( 53 - 53) =     -5.03774  eV     1   --> A'             
     e( 54 - 54) =     -5.03490  eV     1   --> A'             
     e( 55 - 55) =     -5.02106  eV     1   --> A'             
     e( 56 - 56) =     -4.98436  eV     1   --> A'             
     e( 57 - 57) =     -4.96739  eV     1   --> A''            
     e( 58 - 58) =     -4.96020  eV     1   --> A''            
     e( 59 - 59) =     -4.93367  eV     1   --> A'             
     e( 60 - 60) =     -4.92605  eV     1   --> A'             
     e( 61 - 61) =     -0.56165  eV     1   --> A'             
     e( 62 - 62) =     -0.54418  eV     1   --> A'             
     e( 63 - 63) =     -0.53486  eV     1   --> A''            
     e( 64 - 64) =     -0.51369  eV     1   --> A'             
     e( 65 - 65) =     -0.48535  eV     1   --> A'             
     e( 66 - 66) =     -0.44124  eV     1   --> A'             
     e( 67 - 67) =     -0.42585  eV     1   --> A''            
     e( 68 - 68) =     -0.35135  eV     1   --> A'             
     e( 69 - 69) =      0.08440  eV     1   --> A'             
     e( 70 - 70) =      0.09932  eV     1   --> A''            
     e( 71 - 71) =      0.11252  eV     1   --> A'             
     e( 72 - 72) =      0.17401  eV     1   --> A'             
     e( 73 - 73) =      0.39843  eV     1   --> A'             
     e( 74 - 75) =      0.50992  eV     2   --> A'             
     e( 74 - 75) =      0.50992  eV     2   --> A''            
     e( 76 - 76) =      0.53457  eV     1   --> A'             
     e( 77 - 77) =      0.63373  eV     1   --> A''            
     e( 78 - 78) =      0.65772  eV     1   --> A'             
     e( 79 - 79) =      0.69857  eV     1   --> A'             
     e( 80 - 80) =      0.80978  eV     1   --> A'             
     e( 81 - 81) =      2.54580  eV     1   --> A'             
     e( 82 - 82) =      2.60777  eV     1   --> A'             
     e( 83 - 83) =      2.72585  eV     1   --> A''            
     e( 84 - 84) =      2.73767  eV     1   --> A'             
     e( 85 - 85) =      2.79502  eV     1   --> A''            
     e( 86 - 86) =      2.79760  eV     1   --> A'             
     e( 87 - 87) =      2.93357  eV     1   --> A'             
     e( 88 - 88) =      2.99864  eV     1   --> A'             
     e( 89 - 89) =      3.64987  eV     1   --> A'             
     e( 90 - 90) =      3.76312  eV     1   --> A'             
     e( 91 - 91) =      3.77208  eV     1   --> A''            
     e( 92 - 92) =      3.81480  eV     1   --> A'             
     e( 93 - 93) =      3.93959  eV     1   --> A'             
     e( 94 - 94) =      4.00135  eV     1   --> A''            
     e( 95 - 95) =      4.04723  eV     1   --> A'             
     e( 96 - 96) =      4.15853  eV     1   --> A'             
     e( 97 - 97) =      4.44588  eV     1   --> A''            
     e( 98 - 98) =      4.48931  eV     1   --> A''            
     e( 99 - 99) =      4.51205  eV     1   --> A'             
     e(100 -100) =      4.52024  eV     1   --> A''            
     e(101 -101) =      4.52844  eV     1   --> A'             
     e(102 -102) =      4.54089  eV     1   --> A''            
     e(103 -103) =      4.55221  eV     1   --> A'             
     e(104 -104) =      4.58110  eV     1   --> A''            
     e(105 -105) =      4.59897  eV     1   --> A''            
     e(106 -106) =      4.59952  eV     1   --> A''            
     e(107 -107) =      4.64433  eV     1   --> A''            
     e(108 -108) =      4.65454  eV     1   --> A''            
     e(109 -109) =      4.66042  eV     1   --> A''            
     e(110 -110) =      4.66447  eV     1   --> A'             
     e(111 -111) =      4.66977  eV     1   --> A'             
     e(112 -112) =      4.67662  eV     1   --> A''            
     e(113 -113) =      4.68566  eV     1   --> A'             
     e(114 -114) =      4.68916  eV     1   --> A''            
     e(115 -115) =      4.69903  eV     1   --> A'             
     e(116 -116) =      4.71099  eV     1   --> A'             
     e(117 -117) =      4.71795  eV     1   --> A''            
     e(118 -118) =      4.72212  eV     1   --> A''            
     e(119 -119) =      4.82392  eV     1   --> A''            
     e(120 -120) =      4.83197  eV     1   --> A''            
     e(121 -121) =      7.24843  eV     1   --> A'             
     e(122 -122) =      7.29344  eV     1   --> A'             
     e(123 -123) =      7.29860  eV     1   --> A'             
     e(124 -124) =      7.33658  eV     1   --> A''            
     e(125 -125) =      7.66507  eV     1   --> A'             
     e(126 -126) =      7.80046  eV     1   --> A'             
     e(127 -127) =      7.86454  eV     1   --> A''            
     e(128 -128) =      7.86821  eV     1   --> A'             
     e(129 -129) =      8.18542  eV     1   --> A'             
     e(130 -130) =      8.28072  eV     1   --> A''            
     e(131 -131) =      8.29912  eV     1   --> A'             
     e(132 -132) =      8.33253  eV     1   --> A'             
     e(133 -133) =      8.69849  eV     1   --> A'             
     e(134 -134) =      8.71480  eV     1   --> A'             
     e(135 -135) =      8.79932  eV     1   --> A'             
     e(136 -136) =      8.82511  eV     1   --> A''            
     e(137 -137) =      8.82838  eV     1   --> A'             
     e(138 -138) =      8.86350  eV     1   --> A''            
     e(139 -139) =      8.86765  eV     1   --> A'             
     e(140 -140) =      8.87530  eV     1   --> A'             
     e(141 -141) =      9.99617  eV     1   --> A''            
     e(142 -142) =      9.99970  eV     1   --> A'             
     e(143 -143) =     10.02023  eV     1   --> A'             
     e(144 -144) =     10.07163  eV     1   --> A'             

 **************************************************************************

 **************************************************************************

                    xk=(   0.43750,   0.43750,   0.08750  )

     Band symmetry, C_s (m)     point group:

     e(  1 -  1) =     -9.07632  eV     1   --> A'             
     e(  2 -  2) =     -9.07613  eV     1   --> A'             
     e(  3 -  4) =     -9.07543  eV     2   -->   2 A'             
     e(  5 -  5) =     -9.04166  eV     1   --> A''            
     e(  6 -  7) =     -9.04081  eV     2   --> A'             
     e(  6 -  7) =     -9.04081  eV     2   --> A''            
     e(  8 -  8) =     -9.03957  eV     1   --> A'             
     e(  9 -  9) =     -9.01424  eV     1   --> A''            
     e( 10 - 10) =     -9.01412  eV     1   --> A'             
     e( 11 - 11) =     -9.01345  eV     1   --> A''            
     e( 12 - 12) =     -9.01296  eV     1   --> A'             
     e( 13 - 13) =     -8.98155  eV     1   --> A'             
     e( 14 - 16) =     -8.98133  eV     3   --> A'             
     e( 14 - 16) =     -8.98133  eV     3   -->   2 A''            
     e( 17 - 17) =     -8.98091  eV     1   --> A'             
     e( 18 - 18) =     -8.98025  eV     1   --> A'             
     e( 19 - 19) =     -8.97920  eV     1   --> A''            
     e( 20 - 20) =     -8.97844  eV     1   --> A'             
     e( 21 - 22) =     -8.97811  eV     2   --> A'             
     e( 21 - 22) =     -8.97811  eV     2   --> A''            
     e( 23 - 24) =     -8.97657  eV     2   -->   2 A''            
     e( 25 - 26) =     -8.93334  eV     2   --> A'             
     e( 25 - 26) =     -8.93334  eV     2   --> A''            
     e( 27 - 27) =     -8.93316  eV     1   --> A''            
     e( 28 - 28) =     -8.93200  eV     1   --> A'             
     e( 29 - 29) =     -8.93139  eV     1   --> A''            
     e( 30 - 30) =     -8.93102  eV     1   --> A'             
     e( 31 - 31) =     -8.93063  eV     1   --> A''            
     e( 32 - 32) =     -8.93049  eV     1   --> A''            
     e( 33 - 35) =     -8.93035  eV     3   -->   3 A'             
     e( 36 - 36) =     -8.92993  eV     1   --> A''            
     e( 37 - 37) =     -8.92816  eV     1   --> A''            
     e( 38 - 38) =     -8.92765  eV     1   --> A'             
     e( 39 - 39) =     -8.92749  eV     1   --> A'             
     e( 40 - 40) =     -8.92700  eV     1   --> A''            
     e( 41 - 41) =     -5.45731  eV     1   --> A'             
     e( 42 - 42) =     -5.43846  eV     1   --> A'             
     e( 43 - 43) =     -5.26933  eV     1   --> A'             
     e( 44 - 44) =     -5.22822  eV     1   --> A'             
     e( 45 - 45) =     -5.20101  eV     1   --> A''            
     e( 46 - 46) =     -5.19659  eV     1   --> A''            
     e( 47 - 47) =     -5.15662  eV     1   --> A'             
     e( 48 - 48) =     -5.14925  eV     1   --> A'             
     e( 49 - 49) =     -5.10544  eV     1   --> A'             
     e( 50 - 50) =     -5.06047  eV     1   --> A'             
     e( 51 - 51) =     -5.04877  eV     1   --> A'             
     e( 52 - 52) =     -5.04141  eV     1   --> A''            
     e( 53 - 53) =     -5.02332  eV     1   --> A'             
     e( 54 - 54) =     -5.00689  eV     1   --> A'             
     e( 55 - 55) =     -4.98641  eV     1   --> A'             
     e( 56 - 56) =     -4.95309  eV     1   --> A''            
     e( 57 - 57) =     -4.94604  eV     1   --> A''            
     e( 58 - 58) =     -4.91777  eV     1   --> A'             
     e( 59 - 59) =     -4.85162  eV     1   --> A'             
     e( 60 - 60) =     -4.84906  eV     1   --> A'             
     e( 61 - 61) =     -0.55767  eV     1   --> A'             
     e( 62 - 62) =     -0.55382  eV     1   --> A'             
     e( 63 - 63) =     -0.53436  eV     1   --> A'             
     e( 64 - 64) =     -0.52490  eV     1   --> A''            
     e( 65 - 65) =     -0.43637  eV     1   --> A'             
     e( 66 - 66) =     -0.42121  eV     1   --> A''            
     e( 67 - 67) =     -0.40197  eV     1   --> A'             
     e( 68 - 68) =     -0.27137  eV     1   --> A'             
     e( 69 - 69) =      0.11367  eV     1   --> A''            
     e( 70 - 70) =      0.12665  eV     1   --> A'             
     e( 71 - 71) =      0.13270  eV     1   --> A'             
     e( 72 - 72) =      0.25860  eV     1   --> A'             
     e( 73 - 73) =      0.33438  eV     1   --> A'             
     e( 74 - 74) =      0.45210  eV     1   --> A'             
     e( 75 - 75) =      0.50476  eV     1   --> A''            
     e( 76 - 76) =      0.52998  eV     1   --> A'             
     e( 77 - 77) =      0.63709  eV     1   --> A''            
     e( 78 - 78) =      0.66097  eV     1   --> A'             
     e( 79 - 79) =      0.89112  eV     1   --> A'             
     e( 80 - 80) =      1.01568  eV     1   --> A'             
     e( 81 - 81) =      2.36386  eV     1   --> A'             
     e( 82 - 82) =      2.46637  eV     1   --> A'             
     e( 83 - 83) =      2.71419  eV     1   --> A''            
     e( 84 - 84) =      2.72351  eV     1   --> A'             
     e( 85 - 85) =      2.81922  eV     1   --> A''            
     e( 86 - 86) =      2.82470  eV     1   --> A'             
     e( 87 - 87) =      3.13081  eV     1   --> A'             
     e( 88 - 88) =      3.23634  eV     1   --> A'             
     e( 89 - 89) =      3.45968  eV     1   --> A'             
     e( 90 - 90) =      3.63391  eV     1   --> A'             
     e( 91 - 91) =      3.70027  eV     1   --> A''            
     e( 92 - 92) =      3.73240  eV     1   --> A'             
     e( 93 - 93) =      3.89520  eV     1   --> A'             
     e( 94 - 94) =      3.94865  eV     1   --> A''            
     e( 95 - 95) =      4.20673  eV     1   --> A'             
     e( 96 - 96) =      4.32875  eV     1   --> A''            
     e( 97 - 97) =      4.35832  eV     1   --> A'             
     e( 98 - 98) =      4.36731  eV     1   --> A''            
     e( 99 - 99) =      4.38300  eV     1   --> A'             
     e(100 -100) =      4.39607  eV     1   --> A''            
     e(101 -101) =      4.40749  eV     1   --> A'             
     e(102 -102) =      4.45113  eV     1   --> A''            
     e(103 -103) =      4.45661  eV     1   --> A''            
     e(104 -104) =      4.45983  eV     1   --> A'             
     e(105 -105) =      4.48670  eV     1   --> A''            
     e(106 -106) =      4.51035  eV     1   --> A''            
     e(107 -107) =      4.52131  eV     1   --> A''            
     e(108 -108) =      4.53299  eV     1   --> A'             
     e(109 -109) =      4.56916  eV     1   --> A''            
     e(110 -110) =      4.59299  eV     1   --> A'             
     e(111 -111) =      4.59357  eV     1   --> A'             
     e(112 -112) =      4.63609  eV     1   --> A''            
     e(113 -113) =      4.63988  eV     1   --> A'             
     e(114 -114) =      4.64960  eV     1   --> A''            
     e(115 -115) =      4.66501  eV     1   --> A'             
     e(116 -116) =      4.67127  eV     1   --> A''            
     e(117 -117) =      4.76027  eV     1   --> A''            
     e(118 -118) =      4.77582  eV     1   --> A''            
     e(119 -119) =      4.92985  eV     1   --> A''            
     e(120 -120) =      4.93072  eV     1   --> A''            
     e(121 -121) =      7.30669  eV     1   --> A'             
     e(122 -122) =      7.38238  eV     1   --> A'             
     e(123 -123) =      7.49360  eV     1   --> A'             
     e(124 -124) =      7.52754  eV     1   --> A''            
     e(125 -125) =      7.54955  eV     1   --> A'             
     e(126 -126) =      7.86655  eV     1   --> A'             
     e(127 -127) =      7.92193  eV     1   --> A'             
     e(128 -128) =      7.97782  eV     1   --> A''            
     e(129 -129) =      8.20171  eV     1   --> A'             
     e(130 -130) =      8.40037  eV     1   --> A''            
     e(131 -131) =      8.40506  eV     1   --> A'             
     e(132 -132) =      8.41576  eV     1   --> A'             
     e(133 -133) =      8.59601  eV     1   --> A'             
     e(134 -134) =      8.61777  eV     1   --> A'             
     e(135 -135) =      8.78536  eV     1   --> A'             
     e(136 -136) =      8.89613  eV     1   --> A'             
     e(137 -137) =      8.98675  eV     1   --> A''            
     e(138 -138) =      8.99265  eV     1   --> A'             
     e(139 -139) =      9.04003  eV     1   --> A''            
     e(140 -140) =      9.05388  eV     1   --> A'             
     e(141 -141) =      9.89577  eV     1   --> A''            
     e(142 -142) =      9.93779  eV     1   --> A'             
     e(143 -143) =     10.00617  eV     1   --> A'             
     e(144 -144) =     10.02225  eV     1   -->   ?

 **************************************************************************

 **************************************************************************

                    xk=(   0.40625,   0.40625,   0.08125  )

     Band symmetry, C_s (m)     point group:

     e(  1 -  1) =     -9.07740  eV     1   --> A'             
     e(  2 -  2) =     -9.07720  eV     1   --> A'             
     e(  3 -  4) =     -9.07549  eV     2   -->   2 A'             
     e(  5 -  5) =     -9.04138  eV     1   --> A''            
     e(  6 -  6) =     -9.04054  eV     1   --> A''            
     e(  7 -  7) =     -9.03924  eV     1   --> A'             
     e(  8 -  8) =     -9.03809  eV     1   --> A'             
     e(  9 -  9) =     -9.01433  eV     1   --> A''            
     e( 10 - 10) =     -9.01405  eV     1   --> A'             
     e( 11 - 11) =     -9.01350  eV     1   --> A''            
     e( 12 - 12) =     -9.01294  eV     1   --> A'             
     e( 13 - 14) =     -8.98240  eV     2   -->   2 A''            
     e( 15 - 15) =     -8.98138  eV     1   --> A'             
     e( 16 - 16) =     -8.98106  eV     1   --> A'             
     e( 17 - 17) =     -8.98001  eV     1   --> A'             
     e( 18 - 18) =     -8.97928  eV     1   --> A'             
     e( 19 - 19) =     -8.97880  eV     1   --> A''            
     e( 20 - 20) =     -8.97769  eV     1   --> A''            
     e( 21 - 21) =     -8.97734  eV     1   --> A'             
     e( 22 - 22) =     -8.97706  eV     1   --> A'             
     e( 23 - 24) =     -8.97546  eV     2   -->   2 A''            
     e( 25 - 26) =     -8.93425  eV     2   --> A'             
     e( 25 - 26) =     -8.93425  eV     2   --> A''            
     e( 27 - 27) =     -8.93381  eV     1   --> A''            
     e( 28 - 28) =     -8.93311  eV     1   --> A'             
     e( 29 - 29) =     -8.93177  eV     1   --> A'             
     e( 30 - 30) =     -8.93130  eV     1   --> A'             
     e( 31 - 31) =     -8.93105  eV     1   --> A''            
     e( 32 - 32) =     -8.93080  eV     1   --> A'             
     e( 33 - 33) =     -8.93044  eV     1   --> A'             
     e( 34 - 34) =     -8.93021  eV     1   --> A''            
     e( 35 - 35) =     -8.93005  eV     1   --> A''            
     e( 36 - 36) =     -8.92957  eV     1   --> A''            
     e( 37 - 37) =     -8.92776  eV     1   --> A''            
     e( 38 - 38) =     -8.92746  eV     1   --> A'             
     e( 39 - 39) =     -8.92699  eV     1   --> A'             
     e( 40 - 40) =     -8.92666  eV     1   --> A''            
     e( 41 - 41) =     -5.59587  eV     1   --> A'             
     e( 42 - 42) =     -5.57141  eV     1   --> A'             
     e( 43 - 43) =     -5.37850  eV     1   --> A'             
     e( 44 - 44) =     -5.32128  eV     1   --> A'             
     e( 45 - 45) =     -5.17071  eV     1   --> A''            
     e( 46 - 46) =     -5.16617  eV     1   --> A''            
     e( 47 - 47) =     -5.14615  eV     1   --> A'             
     e( 48 - 48) =     -5.12680  eV     1   --> A'             
     e( 49 - 49) =     -5.11913  eV     1   --> A'             
     e( 50 - 50) =     -5.09220  eV     1   --> A'             
     e( 51 - 51) =     -5.02484  eV     1   --> A'             
     e( 52 - 52) =     -5.01776  eV     1   --> A''            
     e( 53 - 53) =     -4.99960  eV     1   --> A'             
     e( 54 - 54) =     -4.98357  eV     1   --> A'             
     e( 55 - 55) =     -4.94392  eV     1   --> A'             
     e( 56 - 56) =     -4.92962  eV     1   --> A''            
     e( 57 - 57) =     -4.92271  eV     1   --> A''            
     e( 58 - 58) =     -4.86617  eV     1   --> A'             
     e( 59 - 59) =     -4.76840  eV     1   --> A'             
     e( 60 - 60) =     -4.75697  eV     1   --> A'             
     e( 61 - 61) =     -0.57448  eV     1   --> A'             
     e( 62 - 62) =     -0.52956  eV     1   --> A'             
     e( 63 - 63) =     -0.51925  eV     1   --> A'             
     e( 64 - 64) =     -0.50958  eV     1   --> A''            
     e( 65 - 65) =     -0.42933  eV     1   --> A'             
     e( 66 - 66) =     -0.41451  eV     1   --> A''            
     e( 67 - 67) =     -0.28125  eV     1   --> A'             
     e( 68 - 68) =     -0.19564  eV     1   --> A'             
     e( 69 - 69) =      0.13645  eV     1   --> A''            
     e( 70 - 70) =      0.14910  eV     1   --> A'             
     e( 71 - 71) =      0.20223  eV     1   --> A'             
     e( 72 - 72) =      0.26994  eV     1   --> A'             
     e( 73 - 73) =      0.36598  eV     1   --> A'             
     e( 74 - 74) =      0.49737  eV     1   --> A''            
     e( 75 - 75) =      0.52344  eV     1   --> A'             
     e( 76 - 76) =      0.55342  eV     1   --> A'             
     e( 77 - 77) =      0.63928  eV     1   --> A''            
     e( 78 - 78) =      0.66302  eV     1   --> A'             
     e( 79 - 79) =      1.10810  eV     1   --> A'             
     e( 80 - 80) =      1.25738  eV     1   --> A'             
     e( 81 - 81) =      2.20901  eV     1   --> A'             
     e( 82 - 82) =      2.35178  eV     1   --> A'             
     e( 83 - 83) =      2.70800  eV     1   --> A''            
     e( 84 - 84) =      2.71603  eV     1   --> A'             
     e( 85 - 85) =      2.84242  eV     1   --> A''            
     e( 86 - 86) =      2.84999  eV     1   --> A'             
     e( 87 - 87) =      3.24994  eV     1   --> A'             
     e( 88 - 88) =      3.33649  eV     1   --> A'             
     e( 89 - 89) =      3.50178  eV     1   --> A'             
     e( 90 - 90) =      3.53458  eV     1   --> A'             
     e( 91 - 91) =      3.58252  eV     1   --> A''            
     e( 92 - 92) =      3.60469  eV     1   --> A'             
     e( 93 - 93) =      3.78914  eV     1   --> A'             
     e( 94 - 94) =      3.83546  eV     1   --> A''            
     e( 95 - 95) =      4.14487  eV     1   --> A'             
     e( 96 - 96) =      4.15873  eV     1   --> A''            
     e( 97 - 97) =      4.20800  eV     1   --> A''            
     e( 98 - 98) =      4.24171  eV     1   --> A''            
     e( 99 - 99) =      4.25550  eV     1   --> A'             
     e(100 -100) =      4.28400  eV     1   --> A''            
     e(101 -101) =      4.30655  eV     1   --> A'             
     e(102 -102) =      4.31406  eV     1   --> A''            
     e(103 -103) =      4.35877  eV     1   --> A''            
     e(104 -104) =      4.36894  eV     1   --> A'             
     e(105 -105) =      4.38204  eV     1   --> A'             
     e(106 -106) =      4.39110  eV     1   --> A''            
     e(107 -107) =      4.41769  eV     1   --> A''            
     e(108 -108) =      4.44536  eV     1   --> A''            
     e(109 -109) =      4.45396  eV     1   --> A'             
     e(110 -110) =      4.47367  eV     1   --> A'             
     e(111 -111) =      4.56615  eV     1   --> A'             
     e(112 -112) =      4.57581  eV     1   --> A'             
     e(113 -113) =      4.58597  eV     1   --> A''            
     e(114 -114) =      4.60057  eV     1   --> A''            
     e(115 -115) =      4.63564  eV     1   --> A'             
     e(116 -116) =      4.65424  eV     1   --> A''            
     e(117 -117) =      4.81220  eV     1   --> A''            
     e(118 -118) =      4.83631  eV     1   --> A''            
     e(119 -119) =      5.02765  eV     1   --> A''            
     e(120 -120) =      5.04277  eV     1   --> A''            
     e(121 -121) =      7.38780  eV     1   --> A'             
     e(122 -122) =      7.42459  eV     1   --> A'             
     e(123 -123) =      7.54532  eV     1   --> A'             
     e(124 -124) =      7.75436  eV     1   --> A'             
     e(125 -125) =      7.78404  eV     1   --> A''            
     e(126 -126) =      7.83104  eV     1   --> A'             
     e(127 -127) =      8.06490  eV     1   --> A'             
     e(128 -128) =      8.10800  eV     1   --> A''            
     e(129 -129) =      8.25617  eV     1   --> A'             
     e(130 -130) =      8.40843  eV     1   --> A'             
     e(131 -131) =      8.49676  eV     1   --> A'             
     e(132 -132) =      8.52267  eV     1   --> A'             
     e(133 -133) =      8.52843  eV     1   --> A''            
     e(134 -134) =      8.53893  eV     1   --> A'             
     e(135 -135) =      8.72934  eV     1   --> A'             
     e(136 -136) =      8.89387  eV     1   --> A'             
     e(137 -137) =      9.17337  eV     1   --> A''            
     e(138 -138) =      9.18909  eV     1   --> A'             
     e(139 -139) =      9.28025  eV     1   --> A''            
     e(140 -140) =      9.30231  eV     1   --> A'             
     e(141 -141) =      9.84628  eV     1   --> A'             
     e(142 -142) =      9.84662  eV     1   --> A''            
     e(143 -143) =      9.88544  eV     1   --> A''            
     e(144 -144) =      9.93022  eV     1   --> A'             

 **************************************************************************

 **************************************************************************

                    xk=(   0.37500,   0.37500,   0.07500  )

     Band symmetry, C_s (m)     point group:

     e(  1 -  1) =     -9.07891  eV     1   --> A'             
     e(  2 -  2) =     -9.07871  eV     1   --> A'             
     e(  3 -  4) =     -9.07557  eV     2   -->   2 A'             
     e(  5 -  5) =     -9.04102  eV     1   --> A''            
     e(  6 -  6) =     -9.04018  eV     1   --> A''            
     e(  7 -  7) =     -9.03714  eV     1   --> A'             
     e(  8 -  8) =     -9.03605  eV     1   --> A'             
     e(  9 -  9) =     -9.01476  eV     1   --> A''            
     e( 10 - 11) =     -9.01391  eV     2   --> A'             
     e( 10 - 11) =     -9.01391  eV     2   --> A''            
     e( 12 - 12) =     -9.01286  eV     1   --> A'             
     e( 13 - 14) =     -8.98346  eV     2   -->   2 A''            
     e( 15 - 15) =     -8.98099  eV     1   --> A'             
     e( 16 - 16) =     -8.98069  eV     1   --> A'             
     e( 17 - 17) =     -8.97870  eV     1   --> A'             
     e( 18 - 18) =     -8.97806  eV     1   --> A''            
     e( 19 - 19) =     -8.97791  eV     1   --> A'             
     e( 20 - 20) =     -8.97701  eV     1   --> A''            
     e( 21 - 21) =     -8.97601  eV     1   --> A'             
     e( 22 - 22) =     -8.97580  eV     1   --> A'             
     e( 23 - 24) =     -8.97432  eV     2   -->   2 A''            
     e( 25 - 25) =     -8.93547  eV     1   --> A'             
     e( 26 - 26) =     -8.93520  eV     1   --> A''            
     e( 27 - 27) =     -8.93466  eV     1   --> A''            
     e( 28 - 28) =     -8.93448  eV     1   --> A'             
     e( 29 - 29) =     -8.93275  eV     1   --> A'             
     e( 30 - 30) =     -8.93248  eV     1   --> A'             
     e( 31 - 31) =     -8.93141  eV     1   --> A'             
     e( 32 - 32) =     -8.93093  eV     1   --> A'             
     e( 33 - 33) =     -8.93055  eV     1   --> A''            
     e( 34 - 34) =     -8.92981  eV     1   --> A''            
     e( 35 - 35) =     -8.92958  eV     1   --> A''            
     e( 36 - 36) =     -8.92925  eV     1   --> A''            
     e( 37 - 37) =     -8.92731  eV     1   --> A'             
     e( 38 - 38) =     -8.92715  eV     1   --> A''            
     e( 39 - 39) =     -8.92663  eV     1   --> A'             
     e( 40 - 40) =     -8.92613  eV     1   --> A''            
     e( 41 - 41) =     -5.73430  eV     1   --> A'             
     e( 42 - 42) =     -5.70461  eV     1   --> A'             
     e( 43 - 43) =     -5.49204  eV     1   --> A'             
     e( 44 - 44) =     -5.41784  eV     1   --> A'             
     e( 45 - 45) =     -5.21206  eV     1   --> A'             
     e( 46 - 46) =     -5.12958  eV     1   --> A'             
     e( 47 - 47) =     -5.12898  eV     1   --> A''            
     e( 48 - 48) =     -5.12437  eV     1   --> A''            
     e( 49 - 49) =     -5.08582  eV     1   --> A'             
     e( 50 - 50) =     -5.07782  eV     1   --> A'             
     e( 51 - 51) =     -4.99202  eV     1   --> A'             
     e( 52 - 52) =     -4.98534  eV     1   --> A''            
     e( 53 - 53) =     -4.96706  eV     1   --> A'             
     e( 54 - 54) =     -4.95157  eV     1   --> A'             
     e( 55 - 55) =     -4.92572  eV     1   --> A'             
     e( 56 - 56) =     -4.89746  eV     1   --> A''            
     e( 57 - 57) =     -4.89074  eV     1   --> A''            
     e( 58 - 58) =     -4.83048  eV     1   --> A'             
     e( 59 - 59) =     -4.69337  eV     1   --> A'             
     e( 60 - 60) =     -4.66994  eV     1   --> A'             
     e( 61 - 61) =     -0.56237  eV     1   --> A'             
     e( 62 - 62) =     -0.50090  eV     1   --> A'             
     e( 63 - 63) =     -0.49672  eV     1   --> A'             
     e( 64 - 64) =     -0.49098  eV     1   --> A''            
     e( 65 - 65) =     -0.42181  eV     1   --> A'             
     e( 66 - 66) =     -0.40747  eV     1   --> A''            
     e( 67 - 67) =     -0.13757  eV     1   --> A'             
     e( 68 - 68) =     -0.10989  eV     1   --> A'             
     e( 69 - 69) =      0.16591  eV     1   --> A''            
     e( 70 - 70) =      0.17814  eV     1   --> A'             
     e( 71 - 71) =      0.25077  eV     1   --> A'             
     e( 72 - 72) =      0.27502  eV     1   --> A'             
     e( 73 - 73) =      0.48844  eV     1   --> A''            
     e( 74 - 74) =      0.50801  eV     1   --> A'             
     e( 75 - 75) =      0.51551  eV     1   --> A'             
     e( 76 - 76) =      0.63661  eV     1   --> A''            
     e( 77 - 77) =      0.66015  eV     1   --> A'             
     e( 78 - 78) =      0.76188  eV     1   --> A'             
     e( 79 - 79) =      1.34607  eV     1   --> A'             
     e( 80 - 80) =      1.53044  eV     1   --> A'             
     e( 81 - 81) =      2.08800  eV     1   --> A'             
     e( 82 - 82) =      2.26617  eV     1   --> A'             
     e( 83 - 83) =      2.70968  eV     1   --> A''            
     e( 84 - 84) =      2.71693  eV     1   --> A'             
     e( 85 - 85) =      2.85592  eV     1   --> A''            
     e( 86 - 86) =      2.86574  eV     1   --> A'             
     e( 87 - 87) =      3.08224  eV     1   --> A'             
     e( 88 - 88) =      3.40037  eV     1   --> A'             
     e( 89 - 89) =      3.42376  eV     1   --> A''            
     e( 90 - 90) =      3.43656  eV     1   --> A'             
     e( 91 - 91) =      3.57817  eV     1   --> A'             
     e( 92 - 92) =      3.61498  eV     1   --> A'             
     e( 93 - 93) =      3.65607  eV     1   --> A''            
     e( 94 - 94) =      3.77568  eV     1   --> A'             
     e( 95 - 95) =      3.85356  eV     1   --> A'             
     e( 96 - 96) =      3.86552  eV     1   --> A''            
     e( 97 - 97) =      4.07637  eV     1   --> A'             
     e( 98 - 98) =      4.08627  eV     1   --> A''            
     e( 99 - 99) =      4.09669  eV     1   --> A''            
     e(100 -100) =      4.11801  eV     1   --> A'             
     e(101 -101) =      4.11940  eV     1   --> A''            
     e(102 -102) =      4.12753  eV     1   --> A''            
     e(103 -103) =      4.25297  eV     1   --> A''            
     e(104 -104) =      4.25615  eV     1   --> A'             
     e(105 -105) =      4.26371  eV     1   --> A''            
     e(106 -106) =      4.32936  eV     1   --> A''            
     e(107 -107) =      4.34097  eV     1   --> A'             
     e(108 -108) =      4.34322  eV     1   --> A''            
     e(109 -109) =      4.35427  eV     1   --> A'             
     e(110 -110) =      4.48796  eV     1   --> A'             
     e(111 -111) =      4.49758  eV     1   --> A''            
     e(112 -112) =      4.52358  eV     1   --> A'             
     e(113 -113) =      4.54815  eV     1   --> A''            
     e(114 -114) =      4.60928  eV     1   --> A'             
     e(115 -115) =      4.63213  eV     1   --> A''            
     e(116 -116) =      4.72784  eV     1   --> A'             
     e(117 -117) =      4.84085  eV     1   --> A''            
     e(118 -118) =      4.89605  eV     1   --> A''            
     e(119 -119) =      5.12026  eV     1   --> A''            
     e(120 -120) =      5.15060  eV     1   --> A''            
     e(121 -121) =      7.36117  eV     1   --> A'             
     e(122 -122) =      7.48329  eV     1   --> A'             
     e(123 -123) =      7.68597  eV     1   --> A'             
     e(124 -124) =      7.82958  eV     1   --> A'             
     e(125 -125) =      8.02997  eV     1   --> A'             
     e(126 -126) =      8.05544  eV     1   --> A''            
     e(127 -127) =      8.17513  eV     1   --> A'             
     e(128 -128) =      8.20049  eV     1   --> A''            
     e(129 -129) =      8.28591  eV     1   --> A'             
     e(130 -130) =      8.31638  eV     1   --> A'             
     e(131 -131) =      8.40022  eV     1   --> A'             
     e(132 -132) =      8.48025  eV     1   --> A'             
     e(133 -133) =      8.58664  eV     1   --> A''            
     e(134 -134) =      8.59011  eV     1   --> A'             
     e(135 -135) =      8.64541  eV     1   --> A'             
     e(136 -136) =      8.86765  eV     1   --> A'             
     e(137 -137) =      9.16853  eV     1   --> A''            
     e(138 -138) =      9.20087  eV     1   --> A'             
     e(139 -139) =      9.39207  eV     1   --> A''            
     e(140 -140) =      9.43376  eV     1   --> A'             
     e(141 -141) =      9.85578  eV     1   --> A''            
     e(142 -142) =      9.86125  eV     1   --> A'             
     e(143 -143) =      9.92696  eV     1   --> A''            
     e(144 -144) =      9.95836  eV     1   --> A''            

 **************************************************************************

 **************************************************************************

                    xk=(   0.34375,   0.34375,   0.06875  )

     Band symmetry, C_s (m)     point group:

     e(  1 -  1) =     -9.08083  eV     1   --> A'             
     e(  2 -  2) =     -9.08061  eV     1   --> A'             
     e(  3 -  4) =     -9.07586  eV     2   -->   2 A'             
     e(  5 -  5) =     -9.04061  eV     1   --> A''            
     e(  6 -  6) =     -9.03979  eV     1   --> A''            
     e(  7 -  7) =     -9.03483  eV     1   --> A'             
     e(  8 -  8) =     -9.03383  eV     1   --> A'             
     e(  9 -  9) =     -9.01558  eV     1   --> A''            
     e( 10 - 10) =     -9.01465  eV     1   --> A''            
     e( 11 - 11) =     -9.01356  eV     1   --> A'             
     e( 12 - 12) =     -9.01262  eV     1   --> A'             
     e( 13 - 13) =     -8.98457  eV     1   --> A''            
     e( 14 - 14) =     -8.98443  eV     1   --> A''            
     e( 15 - 15) =     -8.98051  eV     1   --> A'             
     e( 16 - 16) =     -8.98021  eV     1   --> A'             
     e( 17 - 18) =     -8.97695  eV     2   --> A'             
     e( 17 - 18) =     -8.97695  eV     2   --> A''            
     e( 19 - 19) =     -8.97610  eV     1   --> A'             
     e( 20 - 20) =     -8.97589  eV     1   --> A''            
     e( 21 - 21) =     -8.97453  eV     1   --> A'             
     e( 22 - 22) =     -8.97435  eV     1   --> A'             
     e( 23 - 24) =     -8.97325  eV     2   -->   2 A''            
     e( 25 - 25) =     -8.93699  eV     1   --> A'             
     e( 26 - 26) =     -8.93632  eV     1   --> A''            
     e( 27 - 27) =     -8.93611  eV     1   --> A'             
     e( 28 - 28) =     -8.93566  eV     1   --> A''            
     e( 29 - 29) =     -8.93393  eV     1   --> A'             
     e( 30 - 30) =     -8.93381  eV     1   --> A'             
     e( 31 - 31) =     -8.93210  eV     1   --> A'             
     e( 32 - 32) =     -8.93154  eV     1   --> A'             
     e( 33 - 33) =     -8.92995  eV     1   --> A''            
     e( 34 - 34) =     -8.92933  eV     1   --> A''            
     e( 35 - 35) =     -8.92907  eV     1   --> A''            
     e( 36 - 36) =     -8.92885  eV     1   --> A''            
     e( 37 - 37) =     -8.92715  eV     1   --> A'             
     e( 38 - 39) =     -8.92634  eV     2   --> A'             
     e( 38 - 39) =     -8.92634  eV     2   --> A''            
     e( 40 - 40) =     -8.92543  eV     1   --> A''            
     e( 41 - 41) =     -5.86930  eV     1   --> A'             
     e( 42 - 42) =     -5.83476  eV     1   --> A'             
     e( 43 - 43) =     -5.60657  eV     1   --> A'             
     e( 44 - 44) =     -5.51352  eV     1   --> A'             
     e( 45 - 45) =     -5.29202  eV     1   --> A'             
     e( 46 - 46) =     -5.17249  eV     1   --> A'             
     e( 47 - 47) =     -5.07659  eV     1   --> A''            
     e( 48 - 48) =     -5.07184  eV     1   --> A''            
     e( 49 - 49) =     -5.03461  eV     1   --> A'             
     e( 50 - 50) =     -5.02597  eV     1   --> A'             
     e( 51 - 51) =     -4.95096  eV     1   --> A'             
     e( 52 - 52) =     -4.94488  eV     1   --> A''            
     e( 53 - 53) =     -4.93134  eV     1   --> A'             
     e( 54 - 54) =     -4.92640  eV     1   --> A'             
     e( 55 - 55) =     -4.91156  eV     1   --> A'             
     e( 56 - 56) =     -4.85732  eV     1   --> A''            
     e( 57 - 57) =     -4.85084  eV     1   --> A''            
     e( 58 - 58) =     -4.80677  eV     1   --> A'             
     e( 59 - 59) =     -4.63442  eV     1   --> A'             
     e( 60 - 60) =     -4.59475  eV     1   --> A'             
     e( 61 - 61) =     -0.52638  eV     1   --> A'             
     e( 62 - 62) =     -0.48247  eV     1   --> A'             
     e( 63 - 63) =     -0.47228  eV     1   --> A''            
     e( 64 - 64) =     -0.46231  eV     1   --> A'             
     e( 65 - 65) =     -0.41636  eV     1   --> A'             
     e( 66 - 66) =     -0.40265  eV     1   --> A''            
     e( 67 - 67) =     -0.02546  eV     1   --> A'             
     e( 68 - 68) =      0.03220  eV     1   --> A'             
     e( 69 - 69) =      0.19963  eV     1   --> A''            
     e( 70 - 70) =      0.21141  eV     1   --> A'             
     e( 71 - 71) =      0.27323  eV     1   --> A'             
     e( 72 - 72) =      0.37758  eV     1   --> A'             
     e( 73 - 73) =      0.47798  eV     1   --> A''            
     e( 74 - 74) =      0.50605  eV     1   --> A'             
     e( 75 - 75) =      0.62547  eV     1   --> A''            
     e( 76 - 76) =      0.64863  eV     1   --> A'             
     e( 77 - 77) =      0.71050  eV     1   --> A'             
     e( 78 - 78) =      1.01717  eV     1   --> A'             
     e( 79 - 79) =      1.60335  eV     1   --> A'             
     e( 80 - 80) =      1.83039  eV     1   --> A'             
     e( 81 - 81) =      2.00682  eV     1   --> A'             
     e( 82 - 82) =      2.21272  eV     1   --> A'             
     e( 83 - 83) =      2.71959  eV     1   --> A''            
     e( 84 - 84) =      2.72646  eV     1   --> A'             
     e( 85 - 85) =      2.84945  eV     1   --> A''            
     e( 86 - 86) =      2.86263  eV     1   --> A'             
     e( 87 - 87) =      2.93346  eV     1   --> A'             
     e( 88 - 88) =      3.23817  eV     1   --> A''            
     e( 89 - 89) =      3.24158  eV     1   --> A'             
     e( 90 - 90) =      3.32728  eV     1   --> A'             
     e( 91 - 91) =      3.39449  eV     1   --> A'             
     e( 92 - 92) =      3.43296  eV     1   --> A''            
     e( 93 - 93) =      3.54809  eV     1   --> A'             
     e( 94 - 94) =      3.56055  eV     1   --> A''            
     e( 95 - 95) =      3.79878  eV     1   --> A'             
     e( 96 - 96) =      3.88844  eV     1   --> A'             
     e( 97 - 97) =      3.90338  eV     1   --> A''            
     e( 98 - 98) =      3.94356  eV     1   --> A'             
     e( 99 - 99) =      3.95402  eV     1   --> A''            
     e(100 -100) =      3.96595  eV     1   --> A''            
     e(101 -101) =      4.00325  eV     1   --> A''            
     e(102 -102) =      4.02601  eV     1   --> A'             
     e(103 -103) =      4.13892  eV     1   --> A'             
     e(104 -104) =      4.14434  eV     1   --> A''            
     e(105 -105) =      4.14652  eV     1   --> A''            
     e(106 -106) =      4.24206  eV     1   --> A'             
     e(107 -107) =      4.24563  eV     1   --> A''            
     e(108 -108) =      4.25052  eV     1   --> A'             
     e(109 -109) =      4.25560  eV     1   --> A''            
     e(110 -110) =      4.37698  eV     1   --> A'             
     e(111 -111) =      4.38563  eV     1   --> A''            
     e(112 -112) =      4.48399  eV     1   --> A''            
     e(113 -113) =      4.54926  eV     1   --> A'             
     e(114 -114) =      4.60708  eV     1   --> A''            
     e(115 -115) =      4.70369  eV     1   --> A'             
     e(116 -116) =      4.85201  eV     1   --> A''            
     e(117 -117) =      4.85544  eV     1   --> A'             
     e(118 -118) =      4.94674  eV     1   --> A''            
     e(119 -119) =      5.20370  eV     1   --> A''            
     e(120 -120) =      5.25067  eV     1   --> A''            
     e(121 -121) =      7.33862  eV     1   --> A'             
     e(122 -122) =      7.56870  eV     1   --> A'             
     e(123 -123) =      7.77191  eV     1   --> A'             
     e(124 -124) =      7.92834  eV     1   --> A'             
     e(125 -125) =      8.17221  eV     1   --> A'             
     e(126 -126) =      8.21787  eV     1   --> A'             
     e(127 -127) =      8.21850  eV     1   --> A''            
     e(128 -128) =      8.27760  eV     1   --> A'             
     e(129 -129) =      8.28285  eV     1   --> A'             
     e(130 -130) =      8.30041  eV     1   --> A''            
     e(131 -131) =      8.32641  eV     1   --> A'             
     e(132 -132) =      8.44548  eV     1   --> A'             
     e(133 -133) =      8.55505  eV     1   --> A'             
     e(134 -134) =      8.55806  eV     1   --> A'             
     e(135 -135) =      8.56207  eV     1   --> A''            
     e(136 -136) =      8.82591  eV     1   --> A'             
     e(137 -137) =      8.95129  eV     1   --> A''            
     e(138 -138) =      8.98132  eV     1   --> A'             
     e(139 -139) =      9.20584  eV     1   --> A''            
     e(140 -140) =      9.25001  eV     1   --> A'             
     e(141 -141) =      9.85842  eV     1   --> A''            
     e(142 -142) =      9.95047  eV     1   --> A'             
     e(143 -143) =     10.04339  eV     1   -->   ?
     e(144 -144) =     10.05031  eV     1   -->   ?

 **************************************************************************

 **************************************************************************

                    xk=(   0.31250,   0.31250,   0.06250  )

     Band symmetry, C_s (m)     point group:

     e(  1 -  1) =     -9.08299  eV     1   --> A'             
     e(  2 -  2) =     -9.08277  eV     1   --> A'             
     e(  3 -  4) =     -9.07632  eV     2   -->   2 A'             
     e(  5 -  5) =     -9.04013  eV     1   --> A''            
     e(  6 -  6) =     -9.03932  eV     1   --> A''            
     e(  7 -  7) =     -9.03247  eV     1   --> A'             
     e(  8 -  8) =     -9.03161  eV     1   --> A'             
     e(  9 -  9) =     -9.01678  eV     1   --> A''            
     e( 10 - 10) =     -9.01582  eV     1   --> A''            
     e( 11 - 11) =     -9.01283  eV     1   --> A'             
     e( 12 - 12) =     -9.01204  eV     1   --> A'             
     e( 13 - 13) =     -8.98553  eV     1   --> A''            
     e( 14 - 14) =     -8.98539  eV     1   --> A''            
     e( 15 - 15) =     -8.97978  eV     1   --> A'             
     e( 16 - 16) =     -8.97947  eV     1   --> A'             
     e( 17 - 17) =     -8.97517  eV     1   --> A''            
     e( 18 - 18) =     -8.97481  eV     1   --> A'             
     e( 19 - 19) =     -8.97425  eV     1   --> A''            
     e( 20 - 20) =     -8.97398  eV     1   --> A'             
     e( 21 - 21) =     -8.97287  eV     1   --> A'             
     e( 22 - 22) =     -8.97270  eV     1   --> A'             
     e( 23 - 24) =     -8.97224  eV     2   -->   2 A''            
     e( 25 - 25) =     -8.93862  eV     1   --> A'             
     e( 26 - 26) =     -8.93781  eV     1   --> A'             
     e( 27 - 27) =     -8.93761  eV     1   --> A''            
     e( 28 - 28) =     -8.93686  eV     1   --> A''            
     e( 29 - 30) =     -8.93538  eV     2   -->   2 A'             
     e( 31 - 31) =     -8.93291  eV     1   --> A'             
     e( 32 - 32) =     -8.93225  eV     1   --> A'             
     e( 33 - 33) =     -8.92929  eV     1   --> A''            
     e( 34 - 34) =     -8.92878  eV     1   --> A''            
     e( 35 - 35) =     -8.92853  eV     1   --> A''            
     e( 36 - 36) =     -8.92842  eV     1   --> A''            
     e( 37 - 37) =     -8.92695  eV     1   --> A'             
     e( 38 - 38) =     -8.92595  eV     1   --> A'             
     e( 39 - 39) =     -8.92544  eV     1   --> A''            
     e( 40 - 40) =     -8.92464  eV     1   --> A''            
     e( 41 - 41) =     -5.99844  eV     1   --> A'             
     e( 42 - 42) =     -5.95930  eV     1   --> A'             
     e( 43 - 43) =     -5.71897  eV     1   --> A'             
     e( 44 - 44) =     -5.60561  eV     1   --> A'             
     e( 45 - 45) =     -5.37989  eV     1   --> A'             
     e( 46 - 46) =     -5.21860  eV     1   --> A'             
     e( 47 - 47) =     -5.01447  eV     1   --> A''            
     e( 48 - 48) =     -5.00959  eV     1   --> A''            
     e( 49 - 49) =     -4.97408  eV     1   --> A'             
     e( 50 - 50) =     -4.96456  eV     1   --> A'             
     e( 51 - 51) =     -4.95694  eV     1   --> A'             
     e( 52 - 52) =     -4.90257  eV     1   --> A'             
     e( 53 - 53) =     -4.89734  eV     1   --> A''            
     e( 54 - 54) =     -4.87850  eV     1   --> A'             
     e( 55 - 55) =     -4.86430  eV     1   --> A'             
     e( 56 - 56) =     -4.81005  eV     1   --> A''            
     e( 57 - 57) =     -4.80390  eV     1   --> A''            
     e( 58 - 58) =     -4.79288  eV     1   --> A'             
     e( 59 - 59) =     -4.59392  eV     1   --> A'             
     e( 60 - 60) =     -4.53354  eV     1   --> A'             
     e( 61 - 61) =     -0.47485  eV     1   --> A'             
     e( 62 - 62) =     -0.46826  eV     1   --> A'             
     e( 63 - 63) =     -0.45791  eV     1   --> A''            
     e( 64 - 64) =     -0.43079  eV     1   --> A'             
     e( 65 - 65) =     -0.41649  eV     1   --> A'             
     e( 66 - 66) =     -0.40361  eV     1   --> A''            
     e( 67 - 67) =      0.08379  eV     1   --> A'             
     e( 68 - 68) =      0.17378  eV     1   --> A'             
     e( 69 - 69) =      0.23461  eV     1   --> A''            
     e( 70 - 70) =      0.24592  eV     1   --> A'             
     e( 71 - 71) =      0.34097  eV     1   --> A'             
     e( 72 - 72) =      0.46561  eV     1   --> A''            
     e( 73 - 73) =      0.49440  eV     1   --> A'             
     e( 74 - 74) =      0.55168  eV     1   --> A'             
     e( 75 - 75) =      0.60305  eV     1   --> A''            
     e( 76 - 76) =      0.62548  eV     1   --> A'             
     e( 77 - 77) =      0.94114  eV     1   --> A'             
     e( 78 - 78) =      1.30580  eV     1   --> A'             
     e( 79 - 79) =      1.87784  eV     1   --> A'             
     e( 80 - 80) =      1.97118  eV     1   --> A'             
     e( 81 - 81) =      2.15184  eV     1   --> A'             
     e( 82 - 82) =      2.19673  eV     1   --> A'             
     e( 83 - 83) =      2.73532  eV     1   --> A''            
     e( 84 - 84) =      2.74266  eV     1   --> A'             
     e( 85 - 85) =      2.81168  eV     1   --> A''            
     e( 86 - 86) =      2.81448  eV     1   --> A'             
     e( 87 - 87) =      2.83075  eV     1   --> A'             
     e( 88 - 88) =      3.04186  eV     1   --> A'             
     e( 89 - 89) =      3.04979  eV     1   --> A''            
     e( 90 - 90) =      3.15772  eV     1   --> A'             
     e( 91 - 91) =      3.19620  eV     1   --> A''            
     e( 92 - 92) =      3.25119  eV     1   --> A'             
     e( 93 - 93) =      3.26443  eV     1   --> A''            
     e( 94 - 94) =      3.27059  eV     1   --> A'             
     e( 95 - 95) =      3.71104  eV     1   --> A'             
     e( 96 - 96) =      3.72298  eV     1   --> A''            
     e( 97 - 97) =      3.80440  eV     1   --> A'             
     e( 98 - 98) =      3.81386  eV     1   --> A''            
     e( 99 - 99) =      3.84969  eV     1   --> A''            
     e(100 -100) =      3.89445  eV     1   --> A''            
     e(101 -101) =      4.00989  eV     1   --> A'             
     e(102 -102) =      4.03272  eV     1   --> A'             
     e(103 -103) =      4.03677  eV     1   --> A''            
     e(104 -104) =      4.04003  eV     1   --> A''            
     e(105 -105) =      4.06766  eV     1   --> A'             
     e(106 -106) =      4.15748  eV     1   --> A'             
     e(107 -107) =      4.16263  eV     1   --> A''            
     e(108 -108) =      4.16679  eV     1   --> A''            
     e(109 -109) =      4.24513  eV     1   --> A'             
     e(110 -110) =      4.25257  eV     1   --> A''            
     e(111 -111) =      4.35650  eV     1   --> A'             
     e(112 -112) =      4.41220  eV     1   --> A''            
     e(113 -113) =      4.52017  eV     1   --> A'             
     e(114 -114) =      4.58030  eV     1   --> A''            
     e(115 -115) =      4.84703  eV     1   --> A'             
     e(116 -116) =      4.84760  eV     1   --> A''            
     e(117 -117) =      4.93611  eV     1   --> A'             
     e(118 -118) =      4.98856  eV     1   --> A''            
     e(119 -119) =      5.27561  eV     1   --> A''            
     e(120 -120) =      5.34203  eV     1   --> A''            
     e(121 -121) =      7.36422  eV     1   --> A'             
     e(122 -122) =      7.63189  eV     1   --> A'             
     e(123 -123) =      7.84924  eV     1   --> A'             
     e(124 -124) =      8.01536  eV     1   --> A'             
     e(125 -125) =      8.05666  eV     1   --> A'             
     e(126 -126) =      8.18044  eV     1   --> A''            
     e(127 -127) =      8.20225  eV     1   --> A'             
     e(128 -128) =      8.21031  eV     1   --> A'             
     e(129 -129) =      8.29485  eV     1   --> A'             
     e(130 -130) =      8.36086  eV     1   --> A'             
     e(131 -131) =      8.37354  eV     1   --> A''            
     e(132 -132) =      8.41835  eV     1   --> A'             
     e(133 -133) =      8.48407  eV     1   --> A'             
     e(134 -134) =      8.56126  eV     1   --> A''            
     e(135 -135) =      8.56470  eV     1   --> A'             
     e(136 -136) =      8.73866  eV     1   --> A''            
     e(137 -137) =      8.74455  eV     1   --> A'             
     e(138 -138) =      8.77608  eV     1   --> A'             
     e(139 -139) =      8.94487  eV     1   --> A''            
     e(140 -140) =      8.98669  eV     1   --> A'             
     e(141 -141) =      9.74890  eV     1   --> A''            
     e(142 -142) =      9.85207  eV     1   --> A'             
     e(143 -143) =     10.00879  eV     1   --> A'             
     e(144 -144) =     10.01573  eV     1   -->   ?

 **************************************************************************

 **************************************************************************

                    xk=(   0.28125,   0.28125,   0.05625  )

     Band symmetry, C_s (m)     point group:

     e(  1 -  1) =     -9.08540  eV     1   --> A'             
     e(  2 -  2) =     -9.08517  eV     1   --> A'             
     e(  3 -  4) =     -9.07697  eV     2   -->   2 A'             
     e(  5 -  5) =     -9.03974  eV     1   --> A''            
     e(  6 -  6) =     -9.03896  eV     1   --> A''            
     e(  7 -  7) =     -9.03046  eV     1   --> A'             
     e(  8 -  8) =     -9.02981  eV     1   --> A'             
     e(  9 -  9) =     -9.01829  eV     1   --> A''            
     e( 10 - 10) =     -9.01730  eV     1   --> A''            
     e( 11 - 11) =     -9.01151  eV     1   --> A'             
     e( 12 - 12) =     -9.01095  eV     1   --> A'             
     e( 13 - 14) =     -8.98639  eV     2   -->   2 A''            
     e( 15 - 15) =     -8.97875  eV     1   --> A'             
     e( 16 - 16) =     -8.97846  eV     1   --> A'             
     e( 17 - 17) =     -8.97300  eV     1   --> A''            
     e( 18 - 18) =     -8.97248  eV     1   --> A'             
     e( 19 - 19) =     -8.97213  eV     1   --> A''            
     e( 20 - 20) =     -8.97186  eV     1   --> A'             
     e( 21 - 23) =     -8.97117  eV     3   --> A'             
     e( 21 - 23) =     -8.97117  eV     3   -->   2 A''            
     e( 24 - 24) =     -8.97068  eV     1   --> A'             
     e( 25 - 25) =     -8.94038  eV     1   --> A'             
     e( 26 - 26) =     -8.93960  eV     1   --> A'             
     e( 27 - 27) =     -8.93894  eV     1   --> A''            
     e( 28 - 28) =     -8.93812  eV     1   --> A''            
     e( 29 - 29) =     -8.93699  eV     1   --> A'             
     e( 30 - 30) =     -8.93679  eV     1   --> A'             
     e( 31 - 31) =     -8.93381  eV     1   --> A'             
     e( 32 - 32) =     -8.93306  eV     1   --> A'             
     e( 33 - 33) =     -8.92869  eV     1   --> A''            
     e( 34 - 34) =     -8.92830  eV     1   --> A''            
     e( 35 - 36) =     -8.92800  eV     2   -->   2 A''            
     e( 37 - 37) =     -8.92675  eV     1   --> A'             
     e( 38 - 38) =     -8.92563  eV     1   --> A'             
     e( 39 - 39) =     -8.92461  eV     1   --> A''            
     e( 40 - 40) =     -8.92391  eV     1   --> A''            
     e( 41 - 41) =     -6.11977  eV     1   --> A'             
     e( 42 - 42) =     -6.07640  eV     1   --> A'             
     e( 43 - 43) =     -5.82666  eV     1   --> A'             
     e( 44 - 44) =     -5.69212  eV     1   --> A'             
     e( 45 - 45) =     -5.47128  eV     1   --> A'             
     e( 46 - 46) =     -5.26541  eV     1   --> A'             
     e( 47 - 47) =     -4.99772  eV     1   --> A'             
     e( 48 - 48) =     -4.94401  eV     1   --> A''            
     e( 49 - 49) =     -4.93890  eV     1   --> A''            
     e( 50 - 50) =     -4.90611  eV     1   --> A'             
     e( 51 - 51) =     -4.89532  eV     1   --> A'             
     e( 52 - 52) =     -4.84789  eV     1   --> A'             
     e( 53 - 53) =     -4.84394  eV     1   --> A''            
     e( 54 - 54) =     -4.82441  eV     1   --> A'             
     e( 55 - 55) =     -4.81077  eV     1   --> A'             
     e( 56 - 56) =     -4.78699  eV     1   --> A'             
     e( 57 - 57) =     -4.75713  eV     1   --> A''            
     e( 58 - 58) =     -4.75126  eV     1   --> A''            
     e( 59 - 59) =     -4.57149  eV     1   --> A'             
     e( 60 - 60) =     -4.48656  eV     1   --> A'             
     e( 61 - 61) =     -0.46373  eV     1   --> A'             
     e( 62 - 62) =     -0.45351  eV     1   --> A''            
     e( 63 - 63) =     -0.42646  eV     1   --> A'             
     e( 64 - 64) =     -0.41693  eV     1   --> A'             
     e( 65 - 65) =     -0.41473  eV     1   --> A''            
     e( 66 - 66) =     -0.40541  eV     1   --> A'             
     e( 67 - 67) =      0.19443  eV     1   --> A'             
     e( 68 - 68) =      0.26756  eV     1   --> A''            
     e( 69 - 69) =      0.27840  eV     1   --> A'             
     e( 70 - 70) =      0.28132  eV     1   --> A'             
     e( 71 - 71) =      0.45044  eV     1   --> A''            
     e( 72 - 72) =      0.47926  eV     1   --> A'             
     e( 73 - 73) =      0.48436  eV     1   --> A'             
     e( 74 - 74) =      0.56800  eV     1   --> A''            
     e( 75 - 75) =      0.58913  eV     1   --> A'             
     e( 76 - 76) =      0.77682  eV     1   --> A'             
     e( 77 - 77) =      1.18956  eV     1   --> A'             
     e( 78 - 78) =      1.62036  eV     1   --> A'             
     e( 79 - 79) =      1.98516  eV     1   --> A'             
     e( 80 - 80) =      2.16664  eV     1   --> A'             
     e( 81 - 81) =      2.21633  eV     1   --> A'             
     e( 82 - 82) =      2.49589  eV     1   --> A'             
     e( 83 - 83) =      2.72414  eV     1   --> A''            
     e( 84 - 84) =      2.73322  eV     1   --> A'             
     e( 85 - 85) =      2.74549  eV     1   --> A'             
     e( 86 - 86) =      2.74797  eV     1   --> A''            
     e( 87 - 87) =      2.76270  eV     1   --> A'             
     e( 88 - 88) =      2.87186  eV     1   --> A'             
     e( 89 - 89) =      2.89700  eV     1   --> A''            
     e( 90 - 90) =      2.93437  eV     1   --> A'             
     e( 91 - 91) =      2.97098  eV     1   --> A''            
     e( 92 - 92) =      2.98288  eV     1   --> A'             
     e( 93 - 93) =      2.99587  eV     1   --> A''            
     e( 94 - 94) =      3.23841  eV     1   --> A'             
     e( 95 - 95) =      3.55852  eV     1   --> A'             
     e( 96 - 96) =      3.56819  eV     1   --> A''            
     e( 97 - 97) =      3.70735  eV     1   --> A'             
     e( 98 - 98) =      3.71512  eV     1   --> A''            
     e( 99 - 99) =      3.73991  eV     1   --> A''            
     e(100 -100) =      3.79377  eV     1   --> A''            
     e(101 -101) =      3.93230  eV     1   --> A'             
     e(102 -102) =      3.93312  eV     1   --> A''            
     e(103 -103) =      3.93363  eV     1   --> A'             
     e(104 -104) =      3.93899  eV     1   --> A''            
     e(105 -105) =      4.04834  eV     1   --> A'             
     e(106 -106) =      4.05260  eV     1   --> A''            
     e(107 -107) =      4.09386  eV     1   --> A''            
     e(108 -108) =      4.09504  eV     1   --> A'             
     e(109 -109) =      4.10113  eV     1   --> A''            
     e(110 -110) =      4.25200  eV     1   --> A'             
     e(111 -111) =      4.33637  eV     1   --> A''            
     e(112 -112) =      4.49553  eV     1   --> A'             
     e(113 -113) =      4.55327  eV     1   --> A''            
     e(114 -114) =      4.61719  eV     1   --> A'             
     e(115 -115) =      4.83010  eV     1   --> A''            
     e(116 -116) =      4.94624  eV     1   --> A'             
     e(117 -117) =      5.00174  eV     1   --> A'             
     e(118 -118) =      5.02246  eV     1   --> A''            
     e(119 -119) =      5.33421  eV     1   --> A''            
     e(120 -120) =      5.42370  eV     1   --> A''            
     e(121 -121) =      7.42371  eV     1   --> A'             
     e(122 -122) =      7.69495  eV     1   --> A'             
     e(123 -123) =      7.87808  eV     1   --> A'             
     e(124 -124) =      7.94952  eV     1   --> A'             
     e(125 -125) =      8.03892  eV     1   --> A'             
     e(126 -126) =      8.08132  eV     1   --> A''            
     e(127 -127) =      8.11073  eV     1   --> A'             
     e(128 -128) =      8.16980  eV     1   --> A'             
     e(129 -129) =      8.27038  eV     1   --> A''            
     e(130 -130) =      8.27173  eV     1   --> A'             
     e(131 -131) =      8.29059  eV     1   --> A'             
     e(132 -132) =      8.39535  eV     1   --> A'             
     e(133 -133) =      8.45283  eV     1   --> A''            
     e(134 -134) =      8.45433  eV     1   --> A'             
     e(135 -135) =      8.46811  eV     1   --> A'             
     e(136 -136) =      8.64528  eV     1   --> A''            
     e(137 -137) =      8.66842  eV     1   --> A'             
     e(138 -138) =      8.72578  eV     1   --> A'             
     e(139 -139) =      8.81999  eV     1   --> A''            
     e(140 -140) =      8.82877  eV     1   --> A'             
     e(141 -141) =      9.56447  eV     1   --> A''            
     e(142 -142) =      9.59996  eV     1   --> A'             
     e(143 -143) =      9.92825  eV     1   --> A''            
     e(144 -144) =      9.98202  eV     1   --> A'             

 **************************************************************************

 **************************************************************************

                    xk=(   0.25000,   0.25000,   0.05000  )

     Band symmetry, C_s (m)     point group:

     e(  1 -  1) =     -9.08795  eV     1   --> A'             
     e(  2 -  2) =     -9.08773  eV     1   --> A'             
     e(  3 -  4) =     -9.07786  eV     2   -->   2 A'             
     e(  5 -  5) =     -9.03947  eV     1   --> A''            
     e(  6 -  6) =     -9.03876  eV     1   --> A''            
     e(  7 -  7) =     -9.02911  eV     1   --> A'             
     e(  8 -  8) =     -9.02869  eV     1   --> A'             
     e(  9 -  9) =     -9.02000  eV     1   --> A''            
     e( 10 - 10) =     -9.01902  eV     1   --> A''            
     e( 11 - 11) =     -9.00949  eV     1   --> A'             
     e( 12 - 12) =     -9.00919  eV     1   --> A'             
     e( 13 - 14) =     -8.98728  eV     2   -->   2 A''            
     e( 15 - 15) =     -8.97735  eV     1   --> A'             
     e( 16 - 16) =     -8.97709  eV     1   --> A'             
     e( 17 - 17) =     -8.97048  eV     1   --> A''            
     e( 18 - 18) =     -8.97038  eV     1   --> A'             
     e( 19 - 21) =     -8.97021  eV     3   --> A'             
     e( 19 - 21) =     -8.97021  eV     3   -->   2 A''            
     e( 22 - 22) =     -8.96968  eV     1   --> A''            
     e( 23 - 23) =     -8.96883  eV     1   --> A'             
     e( 24 - 24) =     -8.96812  eV     1   --> A'             
     e( 25 - 25) =     -8.94212  eV     1   --> A'             
     e( 26 - 26) =     -8.94139  eV     1   --> A'             
     e( 27 - 27) =     -8.94020  eV     1   --> A''            
     e( 28 - 28) =     -8.93934  eV     1   --> A''            
     e( 29 - 29) =     -8.93855  eV     1   --> A'             
     e( 30 - 30) =     -8.93829  eV     1   --> A'             
     e( 31 - 31) =     -8.93474  eV     1   --> A'             
     e( 32 - 32) =     -8.93399  eV     1   --> A'             
     e( 33 - 33) =     -8.92823  eV     1   --> A''            
     e( 34 - 34) =     -8.92798  eV     1   --> A''            
[...]
     e(140 -140) =      8.37342  eV     1   --> A              
     e(141 -141) =      8.40268  eV     1   --> A              
     e(142 -142) =      8.50727  eV     1   --> A              
     e(143 -143) =      8.60578  eV     1   --> A              
     e(144 -144) =      8.67996  eV     1   --> A              

 **************************************************************************

 **************************************************************************

                    xk=(   0.03125,   0.00000,   0.00625  )

     Band symmetry, C_1 (1)     point group:

     e(  1 -  1) =     -9.10111  eV     1   --> A              
     e(  2 -  2) =     -9.10091  eV     1   --> A              
     e(  3 -  3) =     -9.08479  eV     1   --> A              
     e(  4 -  4) =     -9.08455  eV     1   --> A              
     e(  5 -  5) =     -9.04204  eV     1   --> A              
     e(  6 -  6) =     -9.04182  eV     1   --> A              
     e(  7 -  7) =     -9.03224  eV     1   --> A              
     e(  8 -  8) =     -9.03178  eV     1   --> A              
     e(  9 -  9) =     -9.02650  eV     1   --> A              
     e( 10 - 10) =     -9.02619  eV     1   --> A              
     e( 11 - 11) =     -8.99125  eV     1   --> A              
     e( 12 - 12) =     -8.99104  eV     1   --> A              
     e( 13 - 13) =     -8.99086  eV     1   --> A              
     e( 14 - 14) =     -8.99068  eV     1   --> A              
     e( 15 - 16) =     -8.96643  eV     2   -->   2 A              
     e( 17 - 18) =     -8.96617  eV     2   -->   2 A              
     e( 19 - 19) =     -8.96210  eV     1   --> A              
     e( 20 - 20) =     -8.96173  eV     1   --> A              
     e( 21 - 22) =     -8.95647  eV     2   -->   2 A              
     e( 23 - 23) =     -8.95608  eV     1   --> A              
     e( 24 - 24) =     -8.95570  eV     1   --> A              
     e( 25 - 25) =     -8.95114  eV     1   --> A              
     e( 26 - 26) =     -8.95049  eV     1   --> A              
     e( 27 - 27) =     -8.94557  eV     1   --> A              
     e( 28 - 28) =     -8.94536  eV     1   --> A              
     e( 29 - 29) =     -8.94519  eV     1   --> A              
     e( 30 - 30) =     -8.94488  eV     1   --> A              
     e( 31 - 31) =     -8.93897  eV     1   --> A              
     e( 32 - 32) =     -8.93803  eV     1   --> A              
     e( 33 - 33) =     -8.92652  eV     1   --> A              
     e( 34 - 34) =     -8.92631  eV     1   --> A              
     e( 35 - 36) =     -8.92496  eV     2   -->   2 A              
     e( 37 - 37) =     -8.92469  eV     1   --> A              
     e( 38 - 38) =     -8.92345  eV     1   --> A              
     e( 39 - 39) =     -8.91894  eV     1   --> A              
     e( 40 - 40) =     -8.91867  eV     1   --> A              
     e( 41 - 41) =     -6.67552  eV     1   --> A              
     e( 42 - 42) =     -6.61429  eV     1   --> A              
     e( 43 - 43) =     -6.33662  eV     1   --> A              
     e( 44 - 44) =     -6.04413  eV     1   --> A              
     e( 45 - 45) =     -6.01055  eV     1   --> A              
     e( 46 - 46) =     -5.45290  eV     1   --> A              
     e( 47 - 47) =     -5.40590  eV     1   --> A              
     e( 48 - 48) =     -4.80767  eV     1   --> A              
     e( 49 - 49) =     -4.69995  eV     1   --> A              
     e( 50 - 50) =     -4.46225  eV     1   --> A              
     e( 51 - 51) =     -4.45440  eV     1   --> A              
     e( 52 - 52) =     -4.44768  eV     1   --> A              
     e( 53 - 53) =     -4.44415  eV     1   --> A              
     e( 54 - 54) =     -4.41149  eV     1   --> A              
     e( 55 - 55) =     -4.39345  eV     1   --> A              
     e( 56 - 56) =     -4.38646  eV     1   --> A              
     e( 57 - 57) =     -4.35984  eV     1   --> A              
     e( 58 - 58) =     -4.35233  eV     1   --> A              
     e( 59 - 59) =     -4.32429  eV     1   --> A              
     e( 60 - 60) =     -4.32238  eV     1   --> A              
     e( 61 - 61) =     -0.89990  eV     1   --> A              
     e( 62 - 62) =     -0.89657  eV     1   --> A              
     e( 63 - 63) =     -0.89076  eV     1   --> A              
     e( 64 - 64) =     -0.88813  eV     1   --> A              
     e( 65 - 65) =     -0.46928  eV     1   --> A              
     e( 66 - 66) =     -0.14776  eV     1   --> A              
     e( 67 - 67) =      0.08918  eV     1   --> A              
     e( 68 - 68) =      0.09608  eV     1   --> A              
     e( 69 - 69) =      0.19752  eV     1   --> A              
     e( 70 - 70) =      0.20127  eV     1   --> A              
     e( 71 - 71) =      0.26262  eV     1   --> A              
     e( 72 - 72) =      0.26466  eV     1   --> A              
     e( 73 - 73) =      0.40865  eV     1   --> A              
     e( 74 - 74) =      1.33341  eV     1   --> A              
     e( 75 - 75) =      1.42802  eV     1   --> A              
     e( 76 - 76) =      2.32709  eV     1   --> A              
     e( 77 - 77) =      2.34322  eV     1   --> A              
     e( 78 - 78) =      2.37051  eV     1   --> A              
     e( 79 - 79) =      2.39146  eV     1   --> A              
     e( 80 - 80) =      2.63100  eV     1   --> A              
     e( 81 - 81) =      2.64326  eV     1   --> A              
     e( 82 - 82) =      2.66476  eV     1   --> A              
     e( 83 - 83) =      2.67927  eV     1   --> A              
     e( 84 - 84) =      2.74950  eV     1   --> A              
     e( 85 - 85) =      2.78399  eV     1   --> A              
     e( 86 - 86) =      2.82725  eV     1   --> A              
     e( 87 - 87) =      2.85888  eV     1   --> A              
     e( 88 - 88) =      2.86259  eV     1   --> A              
     e( 89 - 89) =      2.92298  eV     1   --> A              
     e( 90 - 90) =      2.95608  eV     1   --> A              
     e( 91 - 91) =      2.99726  eV     1   --> A              
     e( 92 - 92) =      3.04477  eV     1   --> A              
     e( 93 - 93) =      3.06818  eV     1   --> A              
     e( 94 - 94) =      3.22002  eV     1   --> A              
     e( 95 - 96) =      3.22207  eV     2   -->   2 A              
     e( 97 - 97) =      3.23214  eV     1   --> A              
     e( 98 - 98) =      3.24000  eV     1   --> A              
     e( 99 - 99) =      3.24017  eV     1   --> A              
     e(100 -100) =      3.33613  eV     1   --> A              
     e(101 -101) =      3.34351  eV     1   --> A              
     e(102 -102) =      3.40951  eV     1   --> A              
     e(103 -103) =      3.41773  eV     1   --> A              
     e(104 -104) =      3.80031  eV     1   --> A              
     e(105 -105) =      3.81717  eV     1   --> A              
     e(106 -106) =      3.84050  eV     1   --> A              
     e(107 -107) =      3.85771  eV     1   --> A              
     e(108 -108) =      4.20463  eV     1   --> A              
     e(109 -109) =      4.46263  eV     1   --> A              
     e(110 -110) =      4.49001  eV     1   --> A              
     e(111 -111) =      4.51311  eV     1   --> A              
     e(112 -112) =      4.53769  eV     1   --> A              
     e(113 -113) =      4.62214  eV     1   --> A              
     e(114 -114) =      5.11612  eV     1   --> A              
     e(115 -115) =      5.17237  eV     1   --> A              
     e(116 -116) =      5.43725  eV     1   --> A              
     e(117 -117) =      5.46524  eV     1   --> A              
     e(118 -118) =      5.66677  eV     1   --> A              
     e(119 -119) =      5.69208  eV     1   --> A              
     e(120 -120) =      5.72451  eV     1   --> A              
     e(121 -121) =      6.94975  eV     1   --> A              
     e(122 -122) =      7.05796  eV     1   --> A              
     e(123 -123) =      7.06230  eV     1   --> A              
     e(124 -124) =      7.11000  eV     1   --> A              
     e(125 -125) =      7.20117  eV     1   --> A              
     e(126 -126) =      7.37143  eV     1   --> A              
     e(127 -127) =      7.60017  eV     1   --> A              
     e(128 -128) =      7.64772  eV     1   --> A              
     e(129 -129) =      7.68828  eV     1   --> A              
     e(130 -130) =      7.69874  eV     1   --> A              
     e(131 -131) =      7.74204  eV     1   --> A              
     e(132 -132) =      7.74283  eV     1   --> A              
     e(133 -133) =      7.78272  eV     1   --> A              
     e(134 -134) =      7.85799  eV     1   --> A              
     e(135 -135) =      7.92636  eV     1   --> A              
     e(136 -136) =      7.98648  eV     1   --> A              
     e(137 -137) =      7.99453  eV     1   --> A              
     e(138 -138) =      8.15072  eV     1   --> A              
     e(139 -139) =      8.28029  eV     1   --> A              
     e(140 -140) =      8.29379  eV     1   --> A              
     e(141 -141) =      8.36404  eV     1   --> A              
     e(142 -142) =      8.46526  eV     1   --> A              
     e(143 -143) =      8.56684  eV     1   --> A              
     e(144 -144) =      8.61695  eV     1   --> A              

 **************************************************************************

 **************************************************************************

                    xk=(   0.00000,   0.00000,   0.00000  )

     point group C_2v (mm2) 
     there are  4 classes
     the character table:

       E     C2    s_v   s_v' 
A_1    1.00  1.00  1.00  1.00
A_2    1.00  1.00 -1.00 -1.00
B_1    1.00 -1.00  1.00 -1.00
B_2    1.00 -1.00 -1.00  1.00

     the symmetry operations in each class and the name of the first element:

     E        1
                                                                 
     C2       2
                                                                 
     s_v      3
                                                                 
     s_v'     4
                                                                 

     Band symmetry, C_2v (mm2)  point group:

     e(  1 -  1) =     -9.10121  eV     1   --> B_2  D_4  S_4  
     e(  2 -  2) =     -9.10101  eV     1   --> B_2  D_4  S_4  
     e(  3 -  3) =     -9.08485  eV     1   --> A_1  D_1  S_1  
     e(  4 -  4) =     -9.08462  eV     1   --> A_1  D_1  S_1  
     e(  5 -  5) =     -9.04209  eV     1   --> B_1  D_3  S_3  
     e(  6 -  6) =     -9.04185  eV     1   --> B_1  D_3  S_3  
     e(  7 -  7) =     -9.03228  eV     1   --> A_1  D_1  S_1  
     e(  8 -  8) =     -9.03180  eV     1   --> A_1  D_1  S_1  
     e(  9 -  9) =     -9.02654  eV     1   --> B_1  D_3  S_3  
     e( 10 - 10) =     -9.02623  eV     1   --> B_1  D_3  S_3  
     e( 11 - 11) =     -8.99104  eV     1   --> B_2  D_4  S_4  
     e( 12 - 12) =     -8.99090  eV     1   --> B_1  D_3  S_3  
     e( 13 - 13) =     -8.99065  eV     1   --> B_1  D_3  S_3  
     e( 14 - 14) =     -8.99054  eV     1   --> B_2  D_4  S_4  
     e( 15 - 16) =     -8.96631  eV     2   --> B_1  D_3  S_3  
     e( 15 - 16) =     -8.96631  eV     2   --> B_2  D_4  S_4  
     e( 17 - 18) =     -8.96609  eV     2   --> B_1  D_3  S_3  
     e( 17 - 18) =     -8.96609  eV     2   --> B_2  D_4  S_4  
     e( 19 - 19) =     -8.96202  eV     1   --> B_2  D_4  S_4  
     e( 20 - 20) =     -8.96164  eV     1   --> B_2  D_4  S_4  
     e( 21 - 22) =     -8.95628  eV     2   --> A_1  D_1  S_1  
     e( 21 - 22) =     -8.95628  eV     2   --> A_2  D_2  S_2  
     e( 23 - 23) =     -8.95593  eV     1   --> A_2  D_2  S_2  
     e( 24 - 24) =     -8.95555  eV     1   --> A_1  D_1  S_1  
     e( 25 - 25) =     -8.95135  eV     1   --> A_1  D_1  S_1  
     e( 26 - 26) =     -8.95069  eV     1   --> A_1  D_1  S_1  
     e( 27 - 27) =     -8.94554  eV     1   --> A_2  D_2  S_2  
     e( 28 - 28) =     -8.94533  eV     1   --> A_1  D_1  S_1  
     e( 29 - 29) =     -8.94519  eV     1   --> A_1  D_1  S_1  
     e( 30 - 30) =     -8.94488  eV     1   --> A_2  D_2  S_2  
     e( 31 - 31) =     -8.93901  eV     1   --> A_1  D_1  S_1  
     e( 32 - 32) =     -8.93804  eV     1   --> A_1  D_1  S_1  
     e( 33 - 33) =     -8.92649  eV     1   --> A_2  D_2  S_2  
     e( 34 - 34) =     -8.92623  eV     1   --> A_2  D_2  S_2  
     e( 35 - 36) =     -8.92481  eV     2   --> A_1  D_1  S_1  
     e( 35 - 36) =     -8.92481  eV     2   --> A_2  D_2  S_2  
     e( 37 - 37) =     -8.92454  eV     1   --> A_2  D_2  S_2  
     e( 38 - 38) =     -8.92331  eV     1   --> A_1  D_1  S_1  
     e( 39 - 39) =     -8.91896  eV     1   --> A_2  D_2  S_2  
     e( 40 - 40) =     -8.91871  eV     1   --> A_2  D_2  S_2  
     e( 41 - 41) =     -6.67920  eV     1   --> A_1  D_1  S_1  
     e( 42 - 42) =     -6.61777  eV     1   --> A_1  D_1  S_1  
     e( 43 - 43) =     -6.34022  eV     1   --> A_1  D_1  S_1  
     e( 44 - 44) =     -6.03735  eV     1   --> A_1  D_1  S_1  
     e( 45 - 45) =     -6.02360  eV     1   --> A_1  D_1  S_1  
     e( 46 - 46) =     -5.44277  eV     1   --> A_1  D_1  S_1  
     e( 47 - 47) =     -5.42079  eV     1   --> A_1  D_1  S_1  
     e( 48 - 48) =     -4.80557  eV     1   --> A_1  D_1  S_1  
     e( 49 - 49) =     -4.70425  eV     1   --> A_1  D_1  S_1  
     e( 50 - 50) =     -4.45665  eV     1   --> B_2  D_4  S_4  
     e( 51 - 51) =     -4.45242  eV     1   --> B_1  D_3  S_3  
     e( 52 - 52) =     -4.44376  eV     1   --> B_2  D_4  S_4  
     e( 53 - 53) =     -4.44045  eV     1   --> B_2  D_4  S_4  
     e( 54 - 54) =     -4.41151  eV     1   --> A_1  D_1  S_1  
     e( 55 - 55) =     -4.38847  eV     1   --> B_1  D_3  S_3  
     e( 56 - 56) =     -4.38132  eV     1   --> B_1  D_3  S_3  
     e( 57 - 57) =     -4.35533  eV     1   --> B_1  D_3  S_3  
     e( 58 - 58) =     -4.34786  eV     1   --> B_1  D_3  S_3  
     e( 59 - 59) =     -4.31871  eV     1   --> B_2  D_4  S_4  
     e( 60 - 60) =     -4.31693  eV     1   --> B_2  D_4  S_4  
     e( 61 - 61) =     -0.90298  eV     1   --> A_2  D_2  S_2  
     e( 62 - 62) =     -0.90279  eV     1   --> A_1  D_1  S_1  
     e( 63 - 63) =     -0.89973  eV     1   --> A_2  D_2  S_2  
     e( 64 - 64) =     -0.89947  eV     1   --> A_1  D_1  S_1  
     e( 65 - 65) =     -0.47115  eV     1   --> A_1  D_1  S_1  
     e( 66 - 66) =     -0.14578  eV     1   --> A_1  D_1  S_1  
     e( 67 - 68) =      0.08654  eV     2   --> A_1  D_1  S_1  
     e( 67 - 68) =      0.08654  eV     2   --> A_2  D_2  S_2  
     e( 69 - 69) =      0.19490  eV     1   --> A_1  D_1  S_1  
     e( 70 - 70) =      0.19520  eV     1   --> A_2  D_2  S_2  
     e( 71 - 72) =      0.26051  eV     2   --> A_1  D_1  S_1  
     e( 71 - 72) =      0.26051  eV     2   --> A_2  D_2  S_2  
     e( 73 - 73) =      0.40698  eV     1   --> A_1  D_1  S_1  
     e( 74 - 74) =      1.36297  eV     1   --> A_1  D_1  S_1  
     e( 75 - 75) =      1.41145  eV     1   --> A_1  D_1  S_1  
     e( 76 - 77) =      2.36909  eV     2   --> A_1  D_1  S_1  
     e( 76 - 77) =      2.36909  eV     2   --> A_2  D_2  S_2  
     e( 78 - 79) =      2.40718  eV     2   --> A_1  D_1  S_1  
     e( 78 - 79) =      2.40718  eV     2   --> A_2  D_2  S_2  
     e( 80 - 80) =      2.59600  eV     1   --> B_2  D_4  S_4  
     e( 81 - 81) =      2.61153  eV     1   --> B_1  D_3  S_3  
     e( 82 - 82) =      2.61937  eV     1   --> B_2  D_4  S_4  
     e( 83 - 83) =      2.62791  eV     1   --> B_1  D_3  S_3  
     e( 84 - 84) =      2.79120  eV     1   --> A_1  D_1  S_1  
     e( 85 - 85) =      2.85714  eV     1   --> A_1  D_1  S_1  
     e( 86 - 87) =      2.86213  eV     2   --> A_1  D_1  S_1  
     e( 86 - 87) =      2.86213  eV     2   --> A_2  D_2  S_2  
     e( 88 - 89) =      2.92089  eV     2   --> A_1  D_1  S_1  
     e( 88 - 89) =      2.92089  eV     2   --> A_2  D_2  S_2  
     e( 90 - 90) =      2.92948  eV     1   --> B_2  D_4  S_4  
     e( 91 - 91) =      2.96557  eV     1   --> B_1  D_3  S_3  
     e( 92 - 92) =      2.97178  eV     1   --> B_1  D_3  S_3  
     e( 93 - 93) =      3.00654  eV     1   --> B_2  D_4  S_4  
     e( 94 - 95) =      3.23016  eV     2   --> B_1  D_3  S_3  
     e( 94 - 95) =      3.23016  eV     2   --> B_2  D_4  S_4  
     e( 96 - 96) =      3.23624  eV     1   --> B_2  D_4  S_4  
     e( 97 - 98) =      3.23676  eV     2   --> A_1  D_1  S_1  
     e( 97 - 98) =      3.23676  eV     2   --> A_2  D_2  S_2  
     e( 99 - 99) =      3.23705  eV     1   --> B_1  D_3  S_3  
     e(100 -100) =      3.34886  eV     1   --> B_1  D_3  S_3  
     e(101 -101) =      3.34899  eV     1   --> B_2  D_4  S_4  
     e(102 -102) =      3.42037  eV     1   --> B_2  D_4  S_4  
     e(103 -103) =      3.42048  eV     1   --> B_1  D_3  S_3  
     e(104 -105) =      3.82426  eV     2   --> B_1  D_3  S_3  
     e(104 -105) =      3.82426  eV     2   --> B_2  D_4  S_4  
     e(106 -107) =      3.84351  eV     2   --> B_1  D_3  S_3  
     e(106 -107) =      3.84351  eV     2   --> B_2  D_4  S_4  
     e(108 -108) =      4.24232  eV     1   --> A_1  D_1  S_1  
     e(109 -110) =      4.49109  eV     2   --> B_1  D_3  S_3  
     e(109 -110) =      4.49109  eV     2   --> B_2  D_4  S_4  
     e(111 -112) =      4.51156  eV     2   --> B_1  D_3  S_3  
     e(111 -112) =      4.51156  eV     2   --> B_2  D_4  S_4  
     e(113 -113) =      4.67245  eV     1   --> A_1  D_1  S_1  
     e(114 -115) =      5.12878  eV     2   --> B_1  D_3  S_3  
     e(114 -115) =      5.12878  eV     2   --> B_2  D_4  S_4  
     e(116 -117) =      5.45072  eV     2   --> B_1  D_3  S_3  
     e(116 -117) =      5.45072  eV     2   --> B_2  D_4  S_4  
     e(118 -118) =      5.68734  eV     1   --> A_1  D_1  S_1  
     e(119 -120) =      5.73801  eV     2   --> B_1  D_3  S_3  
     e(119 -120) =      5.73801  eV     2   --> B_2  D_4  S_4  
     e(121 -121) =      6.90155  eV     1   --> A_1  D_1  S_1  
     e(122 -122) =      7.03002  eV     1   --> A_1  D_1  S_1  
     e(123 -123) =      7.05159  eV     1   --> B_1  D_3  S_3  
     e(124 -124) =      7.09752  eV     1   --> B_2  D_4  S_4  
     e(125 -125) =      7.17934  eV     1   --> A_1  D_1  S_1  
     e(126 -126) =      7.35139  eV     1   --> A_1  D_1  S_1  
     e(127 -127) =      7.61309  eV     1   --> B_1  D_3  S_3  
     e(128 -128) =      7.62864  eV     1   --> A_1  D_1  S_1  
     e(129 -130) =      7.67872  eV     2   --> A_1  D_1  S_1  
     e(129 -130) =      7.67872  eV     2   --> A_2  D_2  S_2  
     e(131 -131) =      7.73031  eV     1   --> A_1  D_1  S_1  
     e(132 -132) =      7.76074  eV     1   --> A_1  D_1  S_1  
     e(133 -133) =      7.76265  eV     1   --> B_2  D_4  S_4  
     e(134 -134) =      7.84362  eV     1   --> A_1  D_1  S_1  
     e(135 -135) =      7.94563  eV     1   --> B_2  D_4  S_4  
     e(136 -136) =      7.97861  eV     1   --> A_1  D_1  S_1  
     e(137 -137) =      7.99877  eV     1   --> B_1  D_3  S_3  
     e(138 -138) =      8.13924  eV     1   --> A_1  D_1  S_1  
     e(139 -139) =      8.25565  eV     1   --> A_2  D_2  S_2  
     e(140 -140) =      8.25583  eV     1   --> A_1  D_1  S_1  
     e(141 -141) =      8.35010  eV     1   --> A_1  D_1  S_1  
     e(142 -142) =      8.44861  eV     1   --> A_1  D_1  S_1  
     e(143 -143) =      8.55813  eV     1   --> A_1  D_1  S_1  
     e(144 -144) =      8.59250  eV     1   --> A_1  D_1  S_1  

 **************************************************************************

     BANDS        :   2m54.43s CPU   3m17.89s WALL


   This run was terminated on:   2: 0:17   6Jan2025            

=------------------------------------------------------------------------------=
   JOB DONE.
=------------------------------------------------------------------------------=
