
     Program POST-PROC v.7.0 starts on  6Jan2025 at  9:15:10 

     This program is part of the open-source Quantum ESPRESSO suite
     for quantum simulation of materials; please cite
         "P. Giannozzi et al., J. Phys.:Condens. Matter 21 395502 (2009);
         "P. Giannozzi et al., J. Phys.:Condens. Matter 29 465901 (2017);
         "P. Giannozzi et al., J. Chem. Phys. 152 154105 (2020);
          URL http://www.quantum-espresso.org", 
     in publications or presentations arising from this work. More details at
     http://www.quantum-espresso.org/quote

     Parallel version (MPI & OpenMP), running on       2 processor cores
     Number of MPI processes:                 1
     Threads/MPI process:                     2

     MPI processes distributed on     1 nodes
     3620 MiB available memory on the printing compute node when the environment starts


     Reading xml data from directory:

     ./outputs/gaalas_sl.save/
     file Al.pbe-n-kjpaw_psl.1.0.0.UPF: wavefunction(s)  3S 3P renormalized
     file Ga.pbe-dn-kjpaw_psl.1.0.0.UPF: wavefunction(s)  4S renormalized

     IMPORTANT: XC functional enforced from input :
     Exchange-correlation= PBE
                           (   1   4   3   4   0   0   0)
     Any further DFT definition will be discarded
     Please, verify this is what you really want


     G-vector sticks info
     --------------------
     sticks:   dense  smooth     PW     G-vecs:    dense   smooth      PW
     Sum        1093    1093    317               135927   135927   21033

     Using Slab Decomposition


     Check: negative core charge=   -0.000007

     Calling punch_plot, plot_num =   0
     Writing data to file  GaAlAsPureChargeDensity.txt
     Reading data from file  GaAlAsPureChargeDensity.txt

     Writing data to be plotted to file GaAlAs_n2_sl_pure_charge_density.xsf
     Requested parallelepiped sides :   1.0000  1.0000  5.0000
     Redefined parallelepiped sides :   1.0000  1.0000  5.0000
     Requested parallelepiped origin:   0.0000  0.0000  0.0000
     Redefined parallelepiped origin:   0.0000  0.0000  0.0000

     Min, Max, Total, Abs charge:   0.002216  6.695289********************
     Plot Type: 3D                     Output format: XCrySDen     

     POST-PROC    :     13.39s CPU     15.34s WALL


   This run was terminated on:   9:15:25   6Jan2025            

=------------------------------------------------------------------------------=
   JOB DONE.
=------------------------------------------------------------------------------=
