
     Program PWSCF v.7.0 starts on  5Jan2025 at 23:34:53 

     This program is part of the open-source Quantum ESPRESSO suite
     for quantum simulation of materials; please cite
         "P. Giannozzi et al., J. Phys.:Condens. Matter 21 395502 (2009);
         "P. Giannozzi et al., J. Phys.:Condens. Matter 29 465901 (2017);
         "P. Giannozzi et al., J. Chem. Phys. 152 154105 (2020);
          URL http://www.quantum-espresso.org", 
     in publications or presentations arising from this work. More details at
     http://www.quantum-espresso.org/quote

     Parallel version (MPI & OpenMP), running on       2 processor cores
     Number of MPI processes:                 2
     Threads/MPI process:                     1

     MPI processes distributed on     1 nodes
     R & G space division:  proc/nbgrp/npool/nimage =       2
     3088 MiB available memory on the printing compute node when the environment starts

     Reading input from pw.bands.n2.5Ao.in

     Current dimensions of program PWSCF are:
     Max number of different atomic species (ntypx) = 10
     Max number of k-points (npk) =  40000
     Max angular momentum in pseudopotentials (lmaxx) =  4

     Atomic positions and unit cell read from directory:
     ./outputs/gaalas_sl.save/
     Atomic positions from file used, from input discarded

     file Al.pbe-n-kjpaw_psl.1.0.0.UPF: wavefunction(s)  3S 3P renormalized
     file Ga.pbe-dn-kjpaw_psl.1.0.0.UPF: wavefunction(s)  4S renormalized

     IMPORTANT: XC functional enforced from input :
     Exchange-correlation= PBE
                           (   1   4   3   4   0   0   0)
     Any further DFT definition will be discarded
     Please, verify this is what you really want

     Found identity + (  0.5000  0.5000  0.0000) symmetry
     This is a supercell, fractional translations are disabled
     Message from routine setup:
     using ibrav=0 with symmetry is DISCOURAGED, use correct ibrav instead

     Subspace diagonalization in iterative solution of the eigenvalue problem:
     a serial algorithm will be used


     Parallelization info
     --------------------
     sticks:   dense  smooth     PW     G-vecs:    dense   smooth      PW
     Min         546     546    158                67962    67962   10514
     Max         547     547    159                67965    67965   10519
     Sum        1093    1093    317               135927   135927   21033

     Using Slab Decomposition



     bravais-lattice index     =            0
     lattice parameter (alat)  =      10.6974  a.u.
     unit-cell volume          =    6120.6851 (a.u.)^3
     number of atoms/cell      =           40
     number of atomic types    =            3
     number of electrons       =       240.00
     number of Kohn-Sham states=          144
     kinetic-energy cutoff     =      30.0000  Ry
     charge density cutoff     =     120.0000  Ry
     Exchange-correlation= PBE
                           (   1   4   3   4   0   0   0)

     celldm(1)=  10.697362  celldm(2)=   0.000000  celldm(3)=   0.000000
     celldm(4)=   0.000000  celldm(5)=   0.000000  celldm(6)=   0.000000

     crystal axes: (cart. coord. in units of alat)
               a(1) = (   1.000000   0.000000   0.000000 )  
               a(2) = (   0.000000   1.000000   0.000000 )  
               a(3) = (   0.000000   0.000000   5.000000 )  

     reciprocal axes: (cart. coord. in units 2 pi/alat)
               b(1) = (  1.000000  0.000000  0.000000 )  
               b(2) = (  0.000000  1.000000  0.000000 )  
               b(3) = (  0.000000  0.000000  0.200000 )  


     PseudoPot. # 1 for Al read from file:
     ../../Chapter11/Pseudopotentials/Al.pbe-n-kjpaw_psl.1.0.0.UPF
     MD5 check sum: 502b6b27b9c6270cab5dd1084b96fa6d
     Pseudo is Projector augmented-wave + core cor, Zval =  3.0
     Generated using &quot;atomic&quot; code by A. Dal Corso  v.6.3
     Shape of augmentation charge: PSQ
     Using radial grid of 1135 points,  6 beta functions with: 
                l(1) =   0
                l(2) =   0
                l(3) =   1
                l(4) =   1
                l(5) =   2
                l(6) =   2
     Q(r) pseudized with 0 coefficients 


     PseudoPot. # 2 for As read from file:
     ../../Chapter11/Pseudopotentials/As.pbe-n-kjpaw_psl.1.0.0.UPF
     MD5 check sum: 21b474db91924651be503153fb2dbf55
     Pseudo is Projector augmented-wave + core cor, Zval =  5.0
     Generated using &quot;atomic&quot; code by A. Dal Corso  v.6.3
     Shape of augmentation charge: PSQ
     Using radial grid of 1209 points,  4 beta functions with: 
                l(1) =   0
                l(2) =   0
                l(3) =   1
                l(4) =   1
     Q(r) pseudized with 0 coefficients 


     PseudoPot. # 3 for Ga read from file:
     ../../Chapter11/Pseudopotentials/Ga.pbe-dn-kjpaw_psl.1.0.0.UPF
     MD5 check sum: 50ce49cbf7e0a40ad8623bf41840a268
     Pseudo is Projector augmented-wave + core cor, Zval = 13.0
     Generated using &quot;atomic&quot; code by A. Dal Corso  v.6.3
     Shape of augmentation charge: PSQ
     Using radial grid of 1205 points,  6 beta functions with: 
                l(1) =   0
                l(2) =   0
                l(3) =   1
                l(4) =   1
                l(5) =   2
                l(6) =   2
     Q(r) pseudized with 0 coefficients 


     atomic species   valence    mass     pseudopotential
        Al             3.00    26.98100     Al( 1.00)
        As             5.00    74.92100     As( 1.00)
        Ga            13.00    69.72300     Ga( 1.00)

     Starting magnetic structure 
     atomic species   magnetization
        Al           1.000
        As           1.000
        Ga           1.000

      4 Sym. Ops. (no inversion) found



   Cartesian axes

     site n.     atom                  positions (alat units)
         1           As  tau(   1) = (   0.2500000   0.2500000   0.2500000  )
         2           As  tau(   2) = (   0.7500000   0.2500000   0.7500000  )
         3           As  tau(   3) = (   0.7500000   0.7500000   0.2500000  )
         4           As  tau(   4) = (   0.2500000   0.7500000   0.7500000  )
         5           As  tau(   5) = (   0.2500000   0.2500000   4.2500000  )
         6           As  tau(   6) = (   0.2500000   0.2500000   2.2500000  )
         7           As  tau(   7) = (   0.2500000   0.2500000   1.2500000  )
         8           As  tau(   8) = (   0.2500000   0.2500000   3.2500000  )
         9           As  tau(   9) = (   0.7500000   0.2500000   4.7500000  )
        10           As  tau(  10) = (   0.7500000   0.2500000   2.7500000  )
        11           As  tau(  11) = (   0.7500000   0.2500000   1.7500000  )
        12           As  tau(  12) = (   0.7500000   0.2500000   3.7500000  )
        13           As  tau(  13) = (   0.7500000   0.7500000   4.2500000  )
        14           As  tau(  14) = (   0.7500000   0.7500000   2.2500000  )
        15           As  tau(  15) = (   0.7500000   0.7500000   1.2500000  )
        16           As  tau(  16) = (   0.7500000   0.7500000   3.2500000  )
        17           As  tau(  17) = (   0.2500000   0.7500000   4.7500000  )
        18           As  tau(  18) = (   0.2500000   0.7500000   2.7500000  )
        19           As  tau(  19) = (   0.2500000   0.7500000   1.7500000  )
        20           As  tau(  20) = (   0.2500000   0.7500000   3.7500000  )
        21           Al  tau(  21) = (   0.0000000   0.0000000   0.0000000  )
        22           Al  tau(  22) = (   0.5000000   0.5000000   0.0000000  )
        23           Al  tau(  23) = (   0.5000000   0.0000000   0.5000000  )
        24           Al  tau(  24) = (   0.0000000   0.5000000   0.5000000  )
        25           Ga  tau(  25) = (   0.0000000   0.0000000   1.0000000  )
        26           Ga  tau(  26) = (   0.5000000   0.5000000   1.0000000  )
        27           Ga  tau(  27) = (   0.5000000   0.0000000   1.5000000  )
        28           Ga  tau(  28) = (   0.0000000   0.5000000   1.5000000  )
        29           Al  tau(  29) = (   0.0000000   0.0000000   2.0000000  )
        30           Al  tau(  30) = (   0.5000000   0.5000000   2.0000000  )
        31           Al  tau(  31) = (   0.5000000   0.0000000   2.5000000  )
        32           Al  tau(  32) = (   0.0000000   0.5000000   2.5000000  )
        33           Ga  tau(  33) = (   0.0000000   0.0000000   3.0000000  )
        34           Ga  tau(  34) = (   0.5000000   0.5000000   3.0000000  )
        35           Ga  tau(  35) = (   0.5000000   0.0000000   3.5000000  )
        36           Ga  tau(  36) = (   0.0000000   0.5000000   3.5000000  )
        37           Al  tau(  37) = (   0.0000000   0.0000000   4.0000000  )
        38           Al  tau(  38) = (   0.5000000   0.5000000   4.0000000  )
        39           Al  tau(  39) = (   0.5000000   0.0000000   4.5000000  )
        40           Al  tau(  40) = (   0.0000000   0.5000000   4.5000000  )

     number of k points=    49  Marzari-Vanderbilt smearing, width (Ry)=  0.0050
                       cart. coord. in units 2pi/alat
        k(    1) = (   0.5000000   0.5000000   0.1000000), wk =   0.0204082
        k(    2) = (   0.4687500   0.4687500   0.0937500), wk =   0.0204082
        k(    3) = (   0.4375000   0.4375000   0.0875000), wk =   0.0204082
        k(    4) = (   0.4062500   0.4062500   0.0812500), wk =   0.0204082
        k(    5) = (   0.3750000   0.3750000   0.0750000), wk =   0.0204082
        k(    6) = (   0.3437500   0.3437500   0.0687500), wk =   0.0204082
        k(    7) = (   0.3125000   0.3125000   0.0625000), wk =   0.0204082
        k(    8) = (   0.2812500   0.2812500   0.0562500), wk =   0.0204082
        k(    9) = (   0.2500000   0.2500000   0.0500000), wk =   0.0204082
        k(   10) = (   0.2187500   0.2187500   0.0437500), wk =   0.0204082
        k(   11) = (   0.1875000   0.1875000   0.0375000), wk =   0.0204082
        k(   12) = (   0.1562500   0.1562500   0.0312500), wk =   0.0204082
        k(   13) = (   0.1250000   0.1250000   0.0250000), wk =   0.0204082
        k(   14) = (   0.0937500   0.0937500   0.0187500), wk =   0.0204082
        k(   15) = (   0.0625000   0.0625000   0.0125000), wk =   0.0204082
        k(   16) = (   0.0312500   0.0312500   0.0062500), wk =   0.0204082
        k(   17) = (   0.0000000   0.0000000   0.0000000), wk =   0.0204082
        k(   18) = (   0.0312500   0.0000000   0.0062500), wk =   0.0204082
        k(   19) = (   0.0625000   0.0000000   0.0125000), wk =   0.0204082
        k(   20) = (   0.0937500   0.0000000   0.0187500), wk =   0.0204082
        k(   21) = (   0.1250000   0.0000000   0.0250000), wk =   0.0204082
        k(   22) = (   0.1562500   0.0000000   0.0312500), wk =   0.0204082
        k(   23) = (   0.1875000   0.0000000   0.0375000), wk =   0.0204082
        k(   24) = (   0.2187500   0.0000000   0.0437500), wk =   0.0204082
        k(   25) = (   0.2500000   0.0000000   0.0500000), wk =   0.0204082
        k(   26) = (   0.2812500   0.0000000   0.0562500), wk =   0.0204082
        k(   27) = (   0.3125000   0.0000000   0.0625000), wk =   0.0204082
        k(   28) = (   0.3437500   0.0000000   0.0687500), wk =   0.0204082
        k(   29) = (   0.3750000   0.0000000   0.0750000), wk =   0.0204082
        k(   30) = (   0.4062500   0.0000000   0.0812500), wk =   0.0204082
        k(   31) = (   0.4375000   0.0000000   0.0875000), wk =   0.0204082
        k(   32) = (   0.4687500   0.0000000   0.0937500), wk =   0.0204082
        k(   33) = (   0.5000000   0.0000000   0.1000000), wk =   0.0204082
        k(   34) = (   0.4687500   0.0000000   0.0937500), wk =   0.0204082
        k(   35) = (   0.4375000   0.0000000   0.0875000), wk =   0.0204082
        k(   36) = (   0.4062500   0.0000000   0.0812500), wk =   0.0204082
        k(   37) = (   0.3750000   0.0000000   0.0750000), wk =   0.0204082
        k(   38) = (   0.3437500   0.0000000   0.0687500), wk =   0.0204082
        k(   39) = (   0.3125000   0.0000000   0.0625000), wk =   0.0204082
        k(   40) = (   0.2812500   0.0000000   0.0562500), wk =   0.0204082
        k(   41) = (   0.2500000   0.0000000   0.0500000), wk =   0.0204082
        k(   42) = (   0.2187500   0.0000000   0.0437500), wk =   0.0204082
        k(   43) = (   0.1875000   0.0000000   0.0375000), wk =   0.0204082
        k(   44) = (   0.1562500   0.0000000   0.0312500), wk =   0.0204082
        k(   45) = (   0.1250000   0.0000000   0.0250000), wk =   0.0204082
        k(   46) = (   0.0937500   0.0000000   0.0187500), wk =   0.0204082
        k(   47) = (   0.0625000   0.0000000   0.0125000), wk =   0.0204082
        k(   48) = (   0.0312500   0.0000000   0.0062500), wk =   0.0204082
        k(   49) = (   0.0000000   0.0000000   0.0000000), wk =   0.0204082

     Dense  grid:   135927 G-vectors     FFT dimensions: (  40,  40, 192)

     Estimated max dynamical RAM per process >     360.87 MB

     Estimated total dynamical RAM >     721.75 MB

     Check: negative core charge=   -0.000007
     Generating pointlists ...
     new r_m :   0.1786 (alat units)  1.9107 (a.u.) for type    1
     new r_m :   0.1786 (alat units)  1.9107 (a.u.) for type    2
     new r_m :   0.1786 (alat units)  1.9107 (a.u.) for type    3

     The potential is recalculated from file :
     ./outputs/gaalas_sl.save/charge-density

     Starting wfcs are  200 randomized atomic wfcs
     Checking if some PAW data can be deallocated... 

     Band Structure Calculation
     Davidson diagonalization with overlap
     c_bands:  1 eigenvalues not converged
     c_bands:  1 eigenvalues not converged
     c_bands:  1 eigenvalues not converged
     c_bands:  2 eigenvalues not converged
     c_bands:  2 eigenvalues not converged
     c_bands:  1 eigenvalues not converged
     c_bands:  1 eigenvalues not converged
     c_bands:  1 eigenvalues not converged
     c_bands:  1 eigenvalues not converged
     c_bands:  1 eigenvalues not converged
     c_bands:  1 eigenvalues not converged
     c_bands:  2 eigenvalues not converged
     c_bands:  2 eigenvalues not converged
     c_bands:  1 eigenvalues not converged
     c_bands:  1 eigenvalues not converged

     ethr =  4.17E-11,  avg # of iterations = 62.6

     total cpu time spent up to now is     8453.4 secs

     End of band structure calculation

 ------ SPIN UP ------------


          k = 0.5000 0.5000 0.1000 ( 17008 PWs)   bands (ev):

    -9.0756  -9.0755  -9.0754  -9.0753  -9.0422  -9.0420  -9.0411  -9.0409
    -9.0142  -9.0141  -9.0134  -9.0129  -8.9817  -8.9815  -8.9812  -8.9809
    -8.9796  -8.9795  -8.9794  -8.9792  -8.9790  -8.9788  -8.9784  -8.9782
    -8.9327  -8.9326  -8.9320  -8.9318  -8.9317  -8.9308  -8.9306  -8.9305
    -8.9304  -8.9303  -8.9299  -8.9288  -8.9287  -8.9286  -8.9279  -8.9274
    -5.2256  -5.2253  -5.2211  -5.2207  -5.1810  -5.1810  -5.1736  -5.1735
    -5.0682  -5.0682  -5.0606  -5.0606  -5.0426  -5.0426  -5.0258  -5.0258
    -4.9725  -4.9722  -4.9655  -4.9652  -0.5477  -0.5476  -0.5383  -0.5382
    -0.4431  -0.4430  -0.4275  -0.4273   0.0944   0.0944   0.1077   0.1078
     0.5116   0.5118   0.5362   0.5364   0.6322   0.6322   0.6562   0.6563
     2.7339   2.7339   2.7492   2.7492   2.7813   2.7814   2.7824   2.7824
     3.7963   3.7963   3.8450   3.8450   3.9489   3.9490   4.0159   4.0160
     4.5503   4.5503   4.5597   4.5597   4.5734   4.5735   4.5892   4.5892
     4.6258   4.6261   4.6378   4.6381   4.6862   4.6862   4.6962   4.6962
     4.7200   4.7203   4.7287   4.7291   4.7567   4.7567   4.7603   4.7604
     7.2242   7.2243   7.2641   7.2641   7.7529   7.7530   7.8200   7.8202
     8.2333   8.2334   8.2530   8.2530   8.7648   8.7650   8.7678   8.7678
     8.8003   8.8003   8.8117   8.8118  10.0316  10.0317  10.0563  10.0564

          k = 0.4687 0.4687 0.0937 ( 16968 PWs)   bands (ev):

    -9.0757  -9.0755  -9.0754  -9.0753  -9.0418  -9.0417  -9.0410  -9.0405
    -9.0143  -9.0141  -9.0135  -9.0129  -8.9816  -8.9814  -8.9813  -8.9808
    -8.9802  -8.9801  -8.9793  -8.9791  -8.9788  -8.9781  -8.9777  -8.9776
    -8.9328  -8.9327  -8.9326  -8.9316  -8.9312  -8.9311  -8.9306  -8.9306
    -8.9302  -8.9301  -8.9300  -8.9294  -8.9284  -8.9280  -8.9277  -8.9272
    -5.3242  -5.3115  -5.2194  -5.2150  -5.1747  -5.1710  -5.1675  -5.1562
    -5.1096  -5.0633  -5.0558  -5.0413  -5.0377  -5.0349  -5.0211  -4.9844
    -4.9674  -4.9602  -4.9337  -4.9260  -0.5616  -0.5442  -0.5349  -0.5137
    -0.4854  -0.4412  -0.4259  -0.3513   0.0844   0.0993   0.1125   0.1740
     0.3984   0.5099   0.5100   0.5346   0.6337   0.6577   0.6986   0.8098
     2.5458   2.6078   2.7259   2.7377   2.7950   2.7976   2.9336   2.9986
     3.6499   3.7631   3.7721   3.8148   3.9396   4.0014   4.0472   4.1585
     4.4459   4.4893   4.5121   4.5202   4.5284   4.5409   4.5522   4.5811
     4.5990   4.5995   4.6443   4.6545   4.6604   4.6645   4.6698   4.6766
     4.6857   4.6892   4.6990   4.7110   4.7179   4.7221   4.8239   4.8320
     7.2484   7.2934   7.2986   7.3366   7.6651   7.8005   7.8645   7.8682
     8.1854   8.2807   8.2991   8.3325   8.6985   8.7148   8.7993   8.8251
     8.8284   8.8635   8.8677   8.8753   9.9962   9.9997  10.0202  10.0716

          k = 0.4375 0.4375 0.0875 ( 16969 PWs)   bands (ev):

    -9.0763  -9.0761  -9.0754  -9.0753  -9.0417  -9.0408  -9.0408  -9.0396
    -9.0142  -9.0141  -9.0134  -9.0130  -8.9816  -8.9813  -8.9813  -8.9812
    -8.9809  -8.9803  -8.9792  -8.9784  -8.9781  -8.9780  -8.9766  -8.9765
    -8.9333  -8.9333  -8.9332  -8.9320  -8.9314  -8.9310  -8.9306  -8.9305
    -8.9303  -8.9303  -8.9302  -8.9299  -8.9282  -8.9276  -8.9275  -8.9270
    -5.4573  -5.4385  -5.2693  -5.2282  -5.2010  -5.1966  -5.1566  -5.1493
    -5.1054  -5.0605  -5.0488  -5.0414  -5.0233  -5.0069  -4.9864  -4.9531
    -4.9460  -4.9178  -4.8516  -4.8491  -0.5577  -0.5538  -0.5344  -0.5249
    -0.4364  -0.4212  -0.4020  -0.2714   0.1137   0.1267   0.1327   0.2586
     0.3344   0.4521   0.5048   0.5300   0.6371   0.6610   0.8911   1.0157
     2.3639   2.4664   2.7142   2.7235   2.8192   2.8247   3.1308   3.2363
     3.4597   3.6339   3.7003   3.7324   3.8952   3.9486   4.2067   4.3288
     4.3583   4.3673   4.3830   4.3961   4.4075   4.4511   4.4566   4.4598
     4.4867   4.5103   4.5213   4.5330   4.5692   4.5930   4.5936   4.6361
     4.6399   4.6496   4.6650   4.6713   4.7603   4.7758   4.9299   4.9307
     7.3067   7.3824   7.4936   7.5275   7.5496   7.8666   7.9219   7.9778
     8.2017   8.4004   8.4051   8.4158   8.5960   8.6178   8.7854   8.8961
     8.9868   8.9926   9.0400   9.0539   9.8958   9.9378  10.0062  10.0222

          k = 0.4062 0.4062 0.0812 ( 16959 PWs)   bands (ev):

    -9.0774  -9.0772  -9.0755  -9.0754  -9.0414  -9.0405  -9.0392  -9.0381
    -9.0143  -9.0141  -9.0135  -9.0129  -8.9824  -8.9823  -8.9814  -8.9811
    -8.9800  -8.9793  -8.9788  -8.9777  -8.9773  -8.9771  -8.9755  -8.9754
    -8.9343  -8.9342  -8.9338  -8.9331  -8.9318  -8.9313  -8.9310  -8.9308
    -8.9304  -8.9302  -8.9301  -8.9296  -8.9278  -8.9275  -8.9270  -8.9267
    -5.5959  -5.5714  -5.3785  -5.3213  -5.1707  -5.1662  -5.1462  -5.1268
    -5.1191  -5.0922  -5.0248  -5.0178  -4.9996  -4.9836  -4.9439  -4.9296
    -4.9227  -4.8662  -4.7684  -4.7570  -0.5745  -0.5296  -0.5192  -0.5096
    -0.4293  -0.4145  -0.2812  -0.1956   0.1365   0.1491   0.2022   0.2699
     0.3660   0.4974   0.5234   0.5534   0.6393   0.6630   1.1081   1.2574
     2.2090   2.3518   2.7080   2.7160   2.8424   2.8500   3.2499   3.3365
     3.5018   3.5346   3.5825   3.6047   3.7891   3.8355   4.1449   4.1587
     4.2080   4.2417   4.2555   4.2840   4.3065   4.3141   4.3588   4.3689
     4.3820   4.3911   4.4177   4.4454   4.4540   4.4737   4.5661   4.5758
     4.5860   4.6006   4.6356   4.6542   4.8122   4.8363   5.0277   5.0428
     7.3878   7.4246   7.5453   7.7544   7.7840   7.8310   8.0649   8.1080
     8.2562   8.4084   8.4968   8.5227   8.5284   8.5389   8.7293   8.8939
     9.1734   9.1891   9.2803   9.3023   9.8463   9.8466   9.8854   9.9302

          k = 0.3750 0.3750 0.0750 ( 16948 PWs)   bands (ev):

    -9.0789  -9.0787  -9.0756  -9.0755  -9.0410  -9.0402  -9.0371  -9.0361
    -9.0148  -9.0139  -9.0139  -9.0129  -8.9835  -8.9834  -8.9810  -8.9807
    -8.9787  -8.9781  -8.9779  -8.9770  -8.9760  -8.9758  -8.9743  -8.9743
    -8.9355  -8.9352  -8.9347  -8.9345  -8.9327  -8.9325  -8.9314  -8.9309
    -8.9306  -8.9298  -8.9296  -8.9292  -8.9273  -8.9272  -8.9266  -8.9261
    -5.7343  -5.7046  -5.4920  -5.4178  -5.2121  -5.1296  -5.1290  -5.1244
    -5.0858  -5.0778  -4.9920  -4.9853  -4.9671  -4.9516  -4.9257  -4.8975
    -4.8907  -4.8305  -4.6934  -4.6699  -0.5624  -0.5009  -0.4967  -0.4910
    -0.4218  -0.4075  -0.1376  -0.1099   0.1659   0.1781   0.2508   0.2750
     0.4884   0.5080   0.5155   0.6366   0.6601   0.7619   1.3461   1.5304
     2.0880   2.2662   2.7097   2.7169   2.8559   2.8657   3.0822   3.4004
     3.4238   3.4366   3.5782   3.6150   3.6561   3.7757   3.8536   3.8655
     4.0764   4.0863   4.0967   4.1180   4.1194   4.1275   4.2530   4.2562
     4.2637   4.3294   4.3410   4.3432   4.3543   4.4880   4.4976   4.5236
     4.5482   4.6093   4.6321   4.7278   4.8408   4.8960   5.1203   5.1506
     7.3612   7.4833   7.6860   7.8296   8.0300   8.0554   8.1751   8.2005
     8.2859   8.3164   8.4002   8.4802   8.5866   8.5901   8.6454   8.8677
     9.1685   9.2009   9.3921   9.4338   9.8558   9.8613   9.9270   9.9584

          k = 0.3437 0.3437 0.0687 ( 16952 PWs)   bands (ev):

    -9.0808  -9.0806  -9.0759  -9.0758  -9.0406  -9.0398  -9.0348  -9.0338
    -9.0156  -9.0147  -9.0136  -9.0126  -8.9846  -8.9844  -8.9805  -8.9802
    -8.9769  -8.9769  -8.9761  -8.9759  -8.9745  -8.9744  -8.9733  -8.9732
    -8.9370  -8.9363  -8.9361  -8.9357  -8.9339  -8.9338  -8.9321  -8.9315
    -8.9300  -8.9293  -8.9291  -8.9289  -8.9272  -8.9263  -8.9263  -8.9254
    -5.8693  -5.8348  -5.6066  -5.5135  -5.2920  -5.1725  -5.0766  -5.0718
    -5.0346  -5.0260  -4.9510  -4.9449  -4.9313  -4.9264  -4.9116  -4.8573
    -4.8508  -4.8068  -4.6344  -4.5947  -0.5264  -0.4825  -0.4723  -0.4623
    -0.4164  -0.4026  -0.0255   0.0322   0.1996   0.2114   0.2732   0.3776
     0.4780   0.5060   0.6255   0.6486   0.7105   1.0172   1.6034   1.8304
     2.0068   2.2127   2.7196   2.7265   2.8494   2.8626   2.9335   3.2382
     3.2416   3.3273   3.3945   3.4330   3.5481   3.5605   3.7988   3.8884
     3.9034   3.9436   3.9540   3.9659   4.0032   4.0260   4.1389   4.1443
     4.1465   4.2421   4.2456   4.2505   4.2556   4.3770   4.3856   4.4840
     4.5493   4.6071   4.7037   4.8520   4.8554   4.9467   5.2037   5.2507
     7.3386   7.5687   7.7719   7.9283   8.1722   8.2179   8.2185   8.2776
     8.2828   8.3004   8.3264   8.4455   8.5550   8.5581   8.5621   8.8259
     8.9513   8.9813   9.2058   9.2500   9.8584   9.9505  10.0434  10.0503

          k = 0.3125 0.3125 0.0625 ( 16951 PWs)   bands (ev):

    -9.0830  -9.0828  -9.0763  -9.0763  -9.0401  -9.0393  -9.0325  -9.0316
    -9.0168  -9.0158  -9.0128  -9.0120  -8.9855  -8.9854  -8.9798  -8.9795
    -8.9752  -8.9748  -8.9743  -8.9740  -8.9729  -8.9727  -8.9722  -8.9722
    -8.9386  -8.9378  -8.9376  -8.9369  -8.9354  -8.9353  -8.9329  -8.9322
    -8.9293  -8.9288  -8.9285  -8.9284  -8.9269  -8.9259  -8.9254  -8.9246
    -5.9984  -5.9593  -5.7190  -5.6056  -5.3799  -5.2186  -5.0145  -5.0096
    -4.9741  -4.9646  -4.9569  -4.9026  -4.8973  -4.8785  -4.8643  -4.8100
    -4.8039  -4.7929  -4.5939  -4.5335  -0.4748  -0.4683  -0.4579  -0.4308
    -0.4165  -0.4036   0.0838   0.1738   0.2346   0.2459   0.3410   0.4656
     0.4944   0.5517   0.6031   0.6255   0.9411   1.3058   1.8778   1.9712
     2.1518   2.1967   2.7353   2.7427   2.8117   2.8145   2.8307   3.0419
     3.0498   3.1577   3.1962   3.2512   3.2644   3.2706   3.7110   3.7230
     3.8044   3.8139   3.8497   3.8945   4.0099   4.0327   4.0368   4.0400
     4.0677   4.1575   4.1626   4.1668   4.2451   4.2526   4.3565   4.4122
     4.5202   4.5803   4.8470   4.8476   4.9361   4.9886   5.2756   5.3420
     7.3642   7.6319   7.8492   8.0154   8.0567   8.1804   8.2022   8.2103
     8.2949   8.3609   8.3735   8.4183   8.4841   8.5613   8.5647   8.7387
     8.7445   8.7761   8.9449   8.9867   9.7489   9.8521  10.0088  10.0157

          k = 0.2812 0.2812 0.0562 ( 16957 PWs)   bands (ev):

    -9.0854  -9.0852  -9.0770  -9.0769  -9.0397  -9.0390  -9.0305  -9.0298
    -9.0183  -9.0173  -9.0115  -9.0110  -8.9864  -8.9863  -8.9787  -8.9785
    -8.9730  -8.9725  -8.9721  -8.9719  -8.9712  -8.9711  -8.9711  -8.9707
    -8.9404  -8.9396  -8.9389  -8.9381  -8.9370  -8.9368  -8.9338  -8.9331
    -8.9287  -8.9283  -8.9280  -8.9280  -8.9268  -8.9256  -8.9246  -8.9239
    -6.1198  -6.0764  -5.8267  -5.6921  -5.4713  -5.2654  -4.9977  -4.9440
    -4.9389  -4.9061  -4.8953  -4.8479  -4.8439  -4.8244  -4.8108  -4.7870
    -4.7571  -4.7513  -4.5715  -4.4866  -0.4637  -0.4535  -0.4265  -0.4169
    -0.4147  -0.4054   0.1944   0.2676   0.2784   0.2813   0.4504   0.4793
     0.4844   0.5680   0.5891   0.7768   1.1896   1.6204   1.9852   2.1666
     2.2163   2.4959   2.7241   2.7332   2.7455   2.7480   2.7627   2.8719
     2.8970   2.9344   2.9710   2.9829   2.9959   3.2384   3.5585   3.5682
     3.7073   3.7151   3.7399   3.7938   3.9323   3.9331   3.9336   3.9390
     4.0483   4.0526   4.0939   4.0950   4.1011   4.2520   4.3364   4.4955
     4.5533   4.6172   4.8301   4.9462   5.0017   5.0225   5.3342   5.4237
     7.4237   7.6950   7.8781   7.9495   8.0389   8.0813   8.1107   8.1698
     8.2704   8.2717   8.2906   8.3953   8.4528   8.4543   8.4681   8.6453
     8.6684   8.7258   8.8200   8.8288   9.5645   9.6000   9.9283   9.9820

          k = 0.2500 0.2500 0.0500 ( 16967 PWs)   bands (ev):

    -9.0880  -9.0877  -9.0779  -9.0778  -9.0395  -9.0388  -9.0291  -9.0287
    -9.0200  -9.0190  -9.0095  -9.0092  -8.9873  -8.9872  -8.9774  -8.9771
    -8.9705  -8.9704  -8.9702  -8.9701  -8.9701  -8.9697  -8.9688  -8.9681
    -8.9421  -8.9414  -8.9402  -8.9393  -8.9386  -8.9383  -8.9347  -8.9340
    -8.9282  -8.9280  -8.9276  -8.9275  -8.9266  -8.9254  -8.9235  -8.9230
    -6.2317  -6.1845  -5.9275  -5.7715  -5.5625  -5.3107  -5.0488  -4.8670
    -4.8615  -4.8332  -4.8208  -4.7881  -4.7871  -4.7862  -4.7652  -4.7518
    -4.7001  -4.6943  -4.5652  -4.4529  -0.4747  -0.4651  -0.4507  -0.4405
    -0.3911  -0.3583   0.2753   0.2955   0.3056   0.4121   0.4314   0.4591
     0.5207   0.5399   0.6637   1.0358   1.4492   1.9543   2.0504   2.2787
     2.4649   2.6072   2.6285   2.6554   2.6589   2.6967   2.7230   2.7504
     2.7750   2.8056   2.8530   2.8660   2.8683   3.2369   3.4376   3.4453
     3.6382   3.6444   3.6505   3.7021   3.8323   3.8334   3.8352   3.8385
     3.9158   3.9187   3.9323   3.9370   4.0277   4.2593   4.3875   4.5276
     4.5657   4.8015   4.8515   4.9521   5.0495   5.1131   5.3792   5.4949
     7.4913   7.7225   7.8367   7.8998   7.9351   7.9640   8.0142   8.1248
     8.1508   8.1637   8.2851   8.2908   8.3011   8.3730   8.4848   8.4962
     8.5138   8.6833   8.8684   8.8963   9.2974   9.3375   9.8230   9.8817

          k = 0.2187 0.2187 0.0437 ( 16989 PWs)   bands (ev):

    -9.0905  -9.0903  -9.0790  -9.0789  -9.0393  -9.0387  -9.0286  -9.0283
    -9.0217  -9.0208  -9.0068  -9.0066  -8.9881  -8.9880  -8.9758  -8.9755
    -8.9693  -8.9692  -8.9687  -8.9686  -8.9678  -8.9671  -8.9662  -8.9654
    -8.9440  -8.9433  -8.9414  -8.9405  -8.9401  -8.9398  -8.9356  -8.9348
    -8.9279  -8.9277  -8.9271  -8.9270  -8.9263  -8.9250  -8.9228  -8.9223
    -6.3330  -6.2824  -6.0198  -5.8423  -5.6505  -5.3522  -5.1061  -4.7911
    -4.7858  -4.7797  -4.7590  -4.7449  -4.7258  -4.7245  -4.7011  -4.6879
    -4.6406  -4.6350  -4.5722  -4.4306  -0.5058  -0.4975  -0.4924  -0.4840
    -0.3874  -0.3056   0.3158   0.3248   0.3320   0.4071   0.4322   0.4631
     0.4800   0.5689   0.8481   1.3143   1.7138   2.1629   2.2975   2.3878
     2.4763   2.4767   2.4864   2.4956   2.5717   2.5848   2.6795   2.6916
     2.7119   2.8031   2.9010   2.9024   3.1767   3.3065   3.3492   3.3551
     3.5460   3.5981   3.6028   3.6199   3.7263   3.7329   3.7448   3.7501
     3.7524   3.7588   3.7734   3.7749   3.9694   4.1837   4.4039   4.5047
     4.7429   4.7653   4.9068   5.0709   5.0885   5.2146   5.4118   5.5563
     7.5466   7.6478   7.7743   7.7885   7.8049   7.9031   7.9666   7.9941
     8.0214   8.0637   8.1072   8.1712   8.2980   8.4054   8.4654   8.4821
     8.4950   8.6581   8.8099   8.8555   9.0982   9.1855   9.6408   9.6485

          k = 0.1875 0.1875 0.0375 ( 17007 PWs)   bands (ev):

    -9.0930  -9.0928  -9.0802  -9.0800  -9.0395  -9.0390  -9.0287  -9.0285
    -9.0233  -9.0225  -9.0037  -9.0035  -8.9888  -8.9887  -8.9740  -8.9738
    -8.9685  -8.9684  -8.9672  -8.9671  -8.9651  -8.9644  -8.9636  -8.9627
    -8.9456  -8.9450  -8.9425  -8.9416  -8.9415  -8.9412  -8.9365  -8.9357
    -8.9276  -8.9275  -8.9266  -8.9265  -8.9261  -8.9248  -8.9219  -8.9215
    -6.4226  -6.3691  -6.1020  -5.9034  -5.7330  -5.3884  -5.1655  -4.7967
    -4.7036  -4.6964  -4.6884  -4.6737  -4.6644  -4.6599  -4.6307  -4.6189
    -4.5887  -4.5810  -4.5753  -4.4173  -0.5581  -0.5517  -0.5515  -0.5454
    -0.3943  -0.2604   0.3265   0.3326   0.3736   0.3764   0.3975   0.3981
     0.4133   0.7315   1.0223   1.6006   1.9758   2.3171   2.3256   2.3398
     2.3538   2.3619   2.4932   2.4988   2.5115   2.6437   2.6581   2.6690
     2.7515   2.9563   2.9579   3.1056   3.2891   3.2903   3.2947   3.4644
     3.5480   3.5508   3.5526   3.5618   3.5657   3.5931   3.5996   3.6036
     3.6282   3.6293   3.6634   3.7497   3.9197   4.1116   4.4081   4.4858
     4.7243   4.8033   4.9967   5.0877   5.2497   5.3104   5.4331   5.6071
     7.5342   7.5979   7.6325   7.6634   7.7269   7.8253   7.8599   7.8732
     7.9165   7.9176   7.9583   8.2100   8.2817   8.4223   8.4339   8.5122
     8.5265   8.6458   8.6649   8.6887   9.0893   9.1298   9.4117   9.4272

          k = 0.1562 0.1562 0.0312 ( 17003 PWs)   bands (ev):

    -9.0953  -9.0951  -9.0814  -9.0813  -9.0398  -9.0394  -9.0293  -9.0291
    -9.0245  -9.0238  -9.0006  -9.0002  -8.9894  -8.9893  -8.9722  -8.9720
    -8.9678  -8.9677  -8.9658  -8.9657  -8.9626  -8.9620  -8.9612  -8.9603
    -8.9471  -8.9465  -8.9434  -8.9428  -8.9426  -8.9424  -8.9372  -8.9364
    -8.9272  -8.9271  -8.9261  -8.9260  -8.9258  -8.9244  -8.9210  -8.9207
    -6.4997  -6.4438  -6.1732  -5.9541  -5.8080  -5.4177  -5.2240  -4.8023
    -4.6263  -4.6246  -4.6151  -4.6115  -4.6100  -4.6019  -4.5998  -4.5548
    -4.5463  -4.5235  -4.5176  -4.4106  -0.6275  -0.6247  -0.6229  -0.6204
    -0.4085  -0.2235   0.3159   0.3162   0.3357   0.3424   0.3525   0.3580
     0.3999   0.8880   1.1740   1.8838   2.2225   2.2257   2.2360   2.2637
     2.2740   2.4728   2.4765   2.5015   2.6257   2.6373   2.6806   2.8568
     3.0181   3.0206   3.0230   3.2547   3.2581   3.3747   3.3748   3.3798
     3.3941   3.4138   3.4209   3.4220   3.4868   3.4912   3.4941   3.5138
     3.5162   3.5922   3.6759   3.8793   4.0317   4.0450   4.4275   4.4720
     4.6812   4.7600   5.1008   5.1698   5.3363   5.4135   5.4456   5.6491
     7.4431   7.5161   7.5429   7.5697   7.6420   7.6975   7.7062   7.7985
     7.8544   7.8649   7.8856   8.1685   8.2779   8.2875   8.3349   8.3515
     8.6096   8.6871   8.6877   8.6954   8.9607   9.0351   9.0520   9.1004

          k = 0.1250 0.1250 0.0250 ( 16990 PWs)   bands (ev):

    -9.0973  -9.0971  -9.0825  -9.0823  -9.0402  -9.0401  -9.0300  -9.0299
    -9.0253  -9.0248  -8.9975  -8.9970  -8.9900  -8.9898  -8.9704  -8.9701
    -8.9673  -8.9671  -8.9646  -8.9644  -8.9603  -8.9597  -8.9592  -8.9583
    -8.9484  -8.9478  -8.9443  -8.9438  -8.9435  -8.9434  -8.9378  -8.9370
    -8.9270  -8.9267  -8.9257  -8.9255  -8.9255  -8.9240  -8.9201  -8.9198
    -6.5637  -6.5057  -6.2325  -5.9936  -5.8740  -5.4391  -5.2789  -4.8064
    -4.6367  -4.5687  -4.5640  -4.5543  -4.5468  -4.5404  -4.5345  -4.4807
    -4.4750  -4.4707  -4.4643  -4.4082  -0.7058  -0.7041  -0.7029  -0.7015
    -0.4262  -0.1944   0.2512   0.2539   0.3008   0.3115   0.3204   0.3287
     0.4126   1.0300   1.2928   2.1518   2.1754   2.1867   2.2218   2.2316
     2.4520   2.5010   2.5044   2.6370   2.6477   2.7014   2.8634   2.9943
     3.0768   3.0827   3.1854   3.1868   3.2254   3.2323   3.2459   3.2504
     3.3357   3.3565   3.3948   3.3957   3.4144   3.4174   3.4368   3.5017
     3.5321   3.6523   3.7751   3.8488   3.9852   4.3233   4.4641   4.5018
     4.6381   4.7464   5.1110   5.3072   5.3981   5.4511   5.4811   5.6819
     7.3447   7.3866   7.4151   7.4937   7.5446   7.6139   7.6701   7.7315
     7.7874   7.8293   7.8536   8.0815   8.0855   8.1127   8.2077   8.3311
     8.4892   8.6204   8.6931   8.7187   8.7764   8.7805   8.8846   8.9069

          k = 0.0937 0.0937 0.0187 ( 16986 PWs)   bands (ev):

    -9.0990  -9.0988  -9.0834  -9.0833  -9.0409  -9.0408  -9.0308  -9.0306
    -9.0259  -9.0255  -8.9948  -8.9943  -8.9905  -8.9902  -8.9687  -8.9683
    -8.9668  -8.9666  -8.9635  -8.9633  -8.9585  -8.9580  -8.9577  -8.9569
    -8.9495  -8.9489  -8.9449  -8.9445  -8.9442  -8.9441  -8.9383  -8.9374
    -8.9268  -8.9266  -8.9252  -8.9252  -8.9251  -8.9237  -8.9195  -8.9192
    -6.6139  -6.5544  -6.2793  -6.0214  -5.9299  -5.4519  -5.3283  -4.8082
    -4.6618  -4.5219  -4.5167  -4.5080  -4.5024  -4.4766  -4.4708  -4.4250
    -4.4180  -4.4152  -4.4112  -4.4085  -0.7821  -0.7806  -0.7802  -0.7790
    -0.4438  -0.1727   0.1860   0.1879   0.2609   0.2670   0.3019   0.3063
     0.4150   1.1523   1.3728   2.1829   2.1911   2.2269   2.2351   2.3920
     2.5681   2.5718   2.6400   2.6743   2.6860   2.8983   3.0009   3.0026
     3.0388   3.0426   3.0442   3.1450   3.1478   3.1518   3.2336   3.2354
     3.2767   3.2769   3.2898   3.3153   3.3172   3.3981   3.4842   3.5767
     3.6954   3.7567   3.8287   3.9336   4.0421   4.4198   4.4626   4.5738
     4.5974   4.9430   5.1188   5.3529   5.4524   5.4612   5.5320   5.7067
     7.2372   7.2506   7.2868   7.3912   7.5303   7.5320   7.6010   7.6117
     7.7929   7.8383   7.8529   7.9173   7.9298   7.9670   8.0454   8.1821
     8.2895   8.4283   8.4698   8.6157   8.6356   8.6518   8.7665   8.9438

          k = 0.0625 0.0625 0.0125 ( 17018 PWs)   bands (ev):

    -9.1002  -9.1000  -9.0842  -9.0840  -9.0415  -9.0414  -9.0316  -9.0313
    -9.0262  -9.0260  -8.9929  -8.9924  -8.9908  -8.9906  -8.9673  -8.9671
    -8.9665  -8.9664  -8.9626  -8.9625  -8.9573  -8.9569  -8.9568  -8.9560
    -8.9504  -8.9498  -8.9453  -8.9451  -8.9449  -8.9446  -8.9387  -8.9378
    -8.9267  -8.9265  -8.9250  -8.9250  -8.9248  -8.9235  -8.9192  -8.9189
    -6.6501  -6.5895  -6.3130  -6.0372  -5.9748  -5.4556  -5.3704  -4.8079
    -4.6836  -4.4865  -4.4817  -4.4731  -4.4687  -4.4280  -4.4214  -4.4097
    -4.3887  -4.3811  -4.3637  -4.3606  -0.8459  -0.8453  -0.8433  -0.8430
    -0.4583  -0.1576   0.1330   0.1339   0.2266   0.2292   0.2817   0.2837
     0.4122   1.2521   1.4138   2.2364   2.2413   2.2730   2.2794   2.5905
     2.6616   2.6673   2.7278   2.7459   2.7743   2.8370   2.8394   2.8654
     2.8680   3.0691   3.1564   3.1567   3.1889   3.1927   3.2013   3.2023
     3.2058   3.2346   3.2352   3.2567   3.2841   3.3706   3.4491   3.7010
     3.7823   3.8189   3.8911   3.9900   4.3077   4.4658   4.4677   4.5569
     4.5605   5.1243   5.2176   5.3732   5.4515   5.4663   5.6119   5.7237
     7.1177   7.1428   7.1845   7.2499   7.3421   7.4852   7.5565   7.6600
     7.7553   7.7883   7.7896   7.8388   7.8818   7.8827   7.8997   7.9784
     8.1181   8.2514   8.4241   8.4620   8.4668   8.5544   8.6455   8.7888

          k = 0.0312 0.0312 0.0062 ( 17033 PWs)   bands (ev):

    -9.1010  -9.1008  -9.0847  -9.0845  -9.0420  -9.0418  -9.0321  -9.0317
    -9.0265  -9.0261  -8.9915  -8.9911  -8.9909  -8.9907  -8.9666  -8.9663
    -8.9663  -8.9661  -8.9622  -8.9618  -8.9567  -8.9565  -8.9562  -8.9557
    -8.9510  -8.9504  -8.9456  -8.9454  -8.9452  -8.9449  -8.9389  -8.9380
    -8.9265  -8.9263  -8.9250  -8.9249  -8.9247  -8.9235  -8.9190  -8.9186
    -6.6719  -6.6107  -6.3334  -6.0411  -6.0076  -5.4505  -5.4036  -4.8064
    -4.6987  -4.4642  -4.4599  -4.4512  -4.4476  -4.4111  -4.3984  -4.3912
    -4.3642  -4.3566  -4.3303  -4.3282  -0.8881  -0.8881  -0.8851  -0.8849
    -0.4678  -0.1487   0.0985   0.0987   0.2034   0.2038   0.2663   0.2668
     0.4085   1.3269   1.4209   2.3174   2.3190   2.3486   2.3526   2.6752
     2.6866   2.6866   2.7032   2.7320   2.7832   2.7942   2.8300   2.8380
     2.8438   3.0414   3.0425   3.0746   3.0795   3.1875   3.2258   3.2259
     3.2358   3.2362   3.2368   3.3099   3.3543   3.3839   3.4277   3.7886
     3.8192   3.8295   3.8592   4.1729   4.4709   4.4795   4.5185   4.5294
     4.5765   5.1277   5.1889   5.4510   5.4517   5.6111   5.6699   5.7342
     6.9865   7.0747   7.0862   7.1196   7.2214   7.3897   7.5940   7.6665
     7.7066   7.7077   7.7276   7.7576   7.8023   7.8730   7.9218   7.9505
     8.0128   8.1623   8.3194   8.3281   8.3763   8.4821   8.5723   8.6457

          k = 0.0000 0.0000 0.0000 ( 17017 PWs)   bands (ev):

    -9.1012  -9.1010  -9.0848  -9.0846  -9.0421  -9.0419  -9.0323  -9.0318
    -9.0265  -9.0262  -8.9910  -8.9909  -8.9906  -8.9905  -8.9663  -8.9662
    -8.9661  -8.9660  -8.9620  -8.9616  -8.9563  -8.9563  -8.9559  -8.9555
    -8.9514  -8.9507  -8.9455  -8.9453  -8.9452  -8.9449  -8.9390  -8.9380
    -8.9265  -8.9262  -8.9248  -8.9248  -8.9245  -8.9233  -8.9190  -8.9187
    -6.6792  -6.6178  -6.3402  -6.0373  -6.0236  -5.4428  -5.4208  -4.8056
    -4.7043  -4.4566  -4.4524  -4.4438  -4.4404  -4.4115  -4.3885  -4.3813
    -4.3553  -4.3479  -4.3187  -4.3169  -0.9030  -0.9028  -0.8997  -0.8995
    -0.4712  -0.1458   0.0865   0.0866   0.1949   0.1952   0.2605   0.2606
     0.4070   1.3630   1.4115   2.3691   2.3691   2.4072   2.4072   2.5960
     2.6115   2.6194   2.6279   2.7912   2.8571   2.8621   2.8621   2.9209
     2.9209   2.9295   2.9656   2.9718   3.0065   3.2302   3.2302   3.2362
     3.2368   3.2368   3.2370   3.3489   3.3490   3.4204   3.4205   3.8243
     3.8243   3.8435   3.8435   4.2423   4.4911   4.4911   4.5116   4.5116
     4.6725   5.1288   5.1288   5.4507   5.4507   5.6873   5.7380   5.7380
     6.9016   7.0300   7.0516   7.0975   7.1793   7.3514   7.6131   7.6286
     7.6787   7.6788   7.7303   7.7607   7.7626   7.8436   7.9456   7.9786
     7.9988   8.1392   8.2557   8.2558   8.3501   8.4486   8.5581   8.5925

          k = 0.0312 0.0000 0.0062 ( 17034 PWs)   bands (ev):

    -9.1011  -9.1009  -9.0848  -9.0845  -9.0420  -9.0418  -9.0322  -9.0318
    -9.0265  -9.0262  -8.9913  -8.9910  -8.9909  -8.9907  -8.9664  -8.9663
    -8.9662  -8.9661  -8.9621  -8.9617  -8.9565  -8.9564  -8.9561  -8.9557
    -8.9511  -8.9505  -8.9456  -8.9454  -8.9452  -8.9449  -8.9390  -8.9380
    -8.9265  -8.9263  -8.9250  -8.9249  -8.9247  -8.9235  -8.9189  -8.9187
    -6.6755  -6.6143  -6.3366  -6.0441  -6.0105  -5.4529  -5.4059  -4.8077
    -4.6999  -4.4623  -4.4544  -4.4477  -4.4441  -4.4115  -4.3935  -4.3865
    -4.3598  -4.3523  -4.3243  -4.3224  -0.8999  -0.8966  -0.8908  -0.8881
    -0.4693  -0.1478   0.0892   0.0961   0.1975   0.2013   0.2626   0.2647
     0.4087   1.3334   1.4280   2.3271   2.3432   2.3705   2.3915   2.6310
     2.6433   2.6648   2.6793   2.7495   2.7840   2.8272   2.8589   2.8626
     2.9230   2.9561   2.9973   3.0448   3.0682   3.2200   3.2221   3.2221
     3.2321   3.2400   3.2402   3.3361   3.3435   3.4095   3.4177   3.8003
     3.8172   3.8405   3.8577   4.2046   4.4626   4.4900   4.5131   4.5377
     4.6221   5.1161   5.1724   5.4373   5.4652   5.6668   5.6921   5.7245
     6.9498   7.0580   7.0623   7.1100   7.2012   7.3714   7.6002   7.6477
     7.6883   7.6987   7.7420   7.7428   7.7827   7.8580   7.9264   7.9865
     7.9945   8.1507   8.2803   8.2938   8.3640   8.4653   8.5668   8.6170

          k = 0.0625 0.0000 0.0125 ( 17035 PWs)   bands (ev):

    -9.1007  -9.1006  -9.0845  -9.0843  -9.0418  -9.0416  -9.0319  -9.0315
    -9.0264  -9.0261  -8.9919  -8.9916  -8.9909  -8.9906  -8.9667  -8.9665
    -8.9665  -8.9663  -8.9624  -8.9621  -8.9568  -8.9568  -8.9563  -8.9559
    -8.9508  -8.9502  -8.9455  -8.9453  -8.9451  -8.9448  -8.9389  -8.9380
    -8.9266  -8.9264  -8.9250  -8.9250  -8.9248  -8.9235  -8.9191  -8.9188
    -6.6645  -6.6039  -6.3258  -6.0492  -5.9866  -5.4651  -5.3795  -4.8128
    -4.6882  -4.4832  -4.4620  -4.4565  -4.4563  -4.4113  -4.4085  -4.4040
    -4.3727  -4.3657  -4.3365  -4.3354  -0.8911  -0.8871  -0.8556  -0.8542
    -0.4638  -0.1537   0.0970   0.1245   0.2050   0.2200   0.2689   0.2771
     0.4134   1.2782   1.4446   2.2429   2.2706   2.3257   2.3742   2.6413
     2.6587   2.6852   2.7204   2.7344   2.7776   2.8016   2.8495   2.8557
     2.9369   2.9771   3.0363   3.1391   3.1731   3.1861   3.1902   3.1986
     3.2190   3.2499   3.2506   3.2985   3.3272   3.3773   3.4106   3.7440
     3.8091   3.8175   3.8864   4.1035   4.4012   4.4619   4.4963   4.5358
     4.6111   5.0783   5.2508   5.4003   5.4920   5.5500   5.6557   5.6873
     7.0506   7.0843   7.1543   7.1558   7.2692   7.4304   7.5632   7.7029
     7.7034   7.7191   7.7594   7.7817   7.8399   7.8632   7.9086   8.0046
     8.0380   8.1906   8.3141   8.3734   8.4027   8.5073   8.6058   8.6800

          k = 0.0937 0.0000 0.0187 ( 17006 PWs)   bands (ev):

    -9.1001  -9.0999  -9.0841  -9.0839  -9.0414  -9.0412  -9.0315  -9.0312
    -9.0262  -9.0260  -8.9930  -8.9927  -8.9906  -8.9904  -8.9671  -8.9669
    -8.9668  -8.9666  -8.9628  -8.9626  -8.9572  -8.9572  -8.9566  -8.9563
    -8.9503  -8.9497  -8.9454  -8.9451  -8.9448  -8.9445  -8.9387  -8.9378
    -8.9266  -8.9265  -8.9251  -8.9250  -8.9248  -8.9236  -8.9192  -8.9189
    -6.6462  -6.5865  -6.3079  -6.0484  -5.9561  -5.4731  -5.3479  -4.8189
    -4.6711  -4.5192  -4.4926  -4.4816  -4.4609  -4.4368  -4.4326  -4.4108
    -4.3910  -4.3863  -4.3489  -4.3481  -0.8767  -0.8720  -0.7997  -0.7991
    -0.4550  -0.1629   0.1097   0.1713   0.2176   0.2517   0.2794   0.2982
     0.4204   1.2120   1.4481   2.1614   2.1909   2.2851   2.3651   2.5171
     2.5406   2.6258   2.7924   2.8072   2.8101   2.8331   2.8908   2.9528
     2.9704   3.0132   3.0848   3.1135   3.1424   3.1618   3.1964   3.2371
     3.2385   3.2663   3.2680   3.2791   3.2998   3.3265   3.4013   3.6630
     3.7701   3.8035   3.9168   3.9674   4.3120   4.3383   4.4570   4.5523
     4.6898   5.0168   5.2497   5.3423   5.4192   5.5575   5.6149   5.6325
     7.1102   7.1608   7.2352   7.2998   7.3977   7.5195   7.5263   7.6883
     7.7565   7.7790   7.8024   7.8480   7.8602   7.9240   8.0065   8.0437
     8.1083   8.2685   8.3319   8.4557   8.4668   8.5651   8.6967   8.7726

          k = 0.1250 0.0000 0.0250 ( 16990 PWs)   bands (ev):

    -9.0993  -9.0990  -9.0836  -9.0834  -9.0409  -9.0407  -9.0310  -9.0308
    -9.0260  -9.0258  -8.9945  -8.9942  -8.9905  -8.9902  -8.9679  -8.9676
    -8.9672  -8.9669  -8.9633  -8.9631  -8.9580  -8.9578  -8.9571  -8.9568
    -8.9497  -8.9491  -8.9450  -8.9448  -8.9444  -8.9441  -8.9384  -8.9375
    -8.9268  -8.9266  -8.9252  -8.9252  -8.9249  -8.9237  -8.9195  -8.9193
    -6.6206  -6.5623  -6.2830  -6.0412  -5.9197  -5.4762  -5.3121  -4.8244
    -4.6507  -4.5709  -4.5436  -4.5269  -4.4840  -4.4724  -4.4564  -4.4119
    -4.4104  -4.4099  -4.3594  -4.3567  -0.8570  -0.8516  -0.7272  -0.7246
    -0.4436  -0.1746   0.1268   0.2350   0.2358   0.2946   0.2967   0.3285
     0.4285   1.1385   1.4369   2.0933   2.1179   2.2505   2.3673   2.3941
     2.4040   2.5395   2.7396   2.8226   2.9045   2.9163   2.9775   3.0233
     3.0435   3.0624   3.0791   3.1145   3.1181   3.1420   3.1603   3.1695
     3.2494   3.2725   3.2892   3.2929   3.3301   3.3561   3.3919   3.5609
     3.7014   3.7566   3.8237   3.9786   4.1817   4.2168   4.3979   4.5835
     4.7621   4.9336   5.0972   5.2629   5.4412   5.5359   5.5495   5.6256
     7.1426   7.2927   7.3291   7.4477   7.5070   7.5856   7.6545   7.6852
     7.7603   7.8101   7.8479   7.9621   7.9970   8.0415   8.0979   8.1418
     8.2107   8.3483   8.3837   8.5124   8.5403   8.6561   8.8335   8.8615

          k = 0.1562 0.0000 0.0312 ( 16987 PWs)   bands (ev):

    -9.0981  -9.0979  -9.0829  -9.0828  -9.0403  -9.0400  -9.0303  -9.0301
    -9.0258  -9.0256  -8.9963  -8.9960  -8.9902  -8.9898  -8.9689  -8.9686
    -8.9677  -8.9674  -8.9640  -8.9638  -8.9591  -8.9589  -8.9578  -8.9575
    -8.9490  -8.9483  -8.9447  -8.9445  -8.9439  -8.9435  -8.9381  -8.9372
    -8.9269  -8.9268  -8.9257  -8.9255  -8.9251  -8.9240  -8.9199  -8.9197
    -6.5878  -6.5312  -6.2511  -6.0276  -5.8775  -5.4742  -5.2724  -4.8281
    -4.6394  -4.6281  -4.6122  -4.5909  -4.5346  -4.5098  -4.4701  -4.4400
    -4.4277  -4.4098  -4.3659  -4.3637  -0.8325  -0.8267  -0.6403  -0.6361
    -0.4301  -0.1880   0.1479   0.2592   0.3059   0.3248   0.3555   0.3687
     0.4364   1.0602   1.4117   2.0412   2.0551   2.2239   2.2560   2.2798
     2.3829   2.4577   2.6527   2.8234   2.9201   3.0036   3.0148   3.0343
     3.0483   3.0602   3.0683   3.1249   3.1320   3.1681   3.1831   3.2065
     3.2283   3.2696   3.3186   3.3257   3.3848   3.4044   3.4201   3.4398
     3.5703   3.6269   3.8117   3.9900   4.0742   4.0940   4.3226   4.5900
     4.7479   4.8316   5.0208   5.1733   5.4301   5.4499   5.5163   5.6314
     7.1827   7.4032   7.4509   7.5700   7.6100   7.6923   7.7408   7.7887
     7.8126   7.8760   7.9262   8.1179   8.1393   8.1909   8.1923   8.2893
     8.3589   8.3685   8.5225   8.5301   8.5888   8.7858   8.8403   8.9965

          k = 0.1875 0.0000 0.0375 ( 16982 PWs)   bands (ev):

    -9.0968  -9.0966  -9.0822  -9.0821  -9.0395  -9.0392  -9.0295  -9.0293
    -9.0255  -9.0253  -8.9984  -8.9982  -8.9897  -8.9893  -8.9698  -8.9695
    -8.9682  -8.9679  -8.9648  -8.9646  -8.9603  -8.9602  -8.9589  -8.9586
    -8.9482  -8.9475  -8.9443  -8.9441  -8.9432  -8.9429  -8.9377  -8.9368
    -8.9271  -8.9269  -8.9260  -8.9258  -8.9254  -8.9243  -8.9206  -8.9203
    -6.5480  -6.4934  -6.2125  -6.0076  -5.8298  -5.4671  -5.2295  -4.8296
    -4.7237  -4.6960  -4.6637  -4.6042  -4.5955  -4.5551  -4.4934  -4.4655
    -4.4436  -4.4091  -4.3700  -4.3692  -0.8036  -0.7980  -0.5430  -0.5377
    -0.4155  -0.2026   0.1723   0.2887   0.3356   0.4168   0.4195   0.4287
     0.4429   0.9794   1.3737   1.9983   2.0117   2.1013   2.1776   2.2074
     2.3819   2.4119   2.5520   2.8143   2.8308   2.9192   2.9668   3.0027
     3.0743   3.0769   3.0957   3.1539   3.1810   3.1856   3.2048   3.2773
     3.2938   3.3236   3.3532   3.3650   3.3809   3.3901   3.4229   3.4276
     3.5001   3.5297   3.8095   3.8513   3.9586   4.1178   4.2355   4.4631
     4.7136   4.7243   5.0606   5.0892   5.3332   5.3688   5.5185   5.6005
     7.2312   7.4668   7.6338   7.6896   7.7145   7.7501   7.7925   7.9534
     7.9583   8.0055   8.0469   8.2201   8.3004   8.3471   8.3652   8.3994
     8.4351   8.4830   8.5524   8.6526   8.7287   8.9028   8.9463   9.0804

          k = 0.2187 0.0000 0.0437 ( 16999 PWs)   bands (ev):

    -9.0953  -9.0951  -9.0815  -9.0813  -9.0385  -9.0383  -9.0288  -9.0287
    -9.0252  -9.0250  -9.0010  -9.0007  -8.9892  -8.9889  -8.9708  -8.9706
    -8.9687  -8.9684  -8.9656  -8.9655  -8.9618  -8.9618  -8.9603  -8.9600
    -8.9472  -8.9466  -8.9439  -8.9436  -8.9425  -8.9422  -8.9373  -8.9365
    -8.9274  -8.9272  -8.9265  -8.9262  -8.9258  -8.9247  -8.9212  -8.9209
    -6.5012  -6.4489  -6.1672  -5.9812  -5.7770  -5.4548  -5.1836  -4.8285
    -4.8198  -4.7917  -4.7412  -4.6655  -4.6059  -4.5798  -4.5314  -4.4880
    -4.4570  -4.4083  -4.3762  -4.3704  -0.7710  -0.7663  -0.4392  -0.4337
    -0.4011  -0.2177   0.1994   0.3243   0.3664   0.4471   0.4819   0.5166
     0.5289   0.8978   1.3246   1.9437   1.9579   1.9954   2.0915   2.1995
     2.3151   2.4408   2.4525   2.7055   2.8293   2.8438   2.8599   2.9454
     2.9729   3.0572   3.1072   3.1386   3.1399   3.2246   3.2789   3.3018
     3.3347   3.3586   3.3869   3.3961   3.4110   3.4204   3.4265   3.4729
     3.5621   3.5756   3.6884   3.7989   3.8249   4.1107   4.1803   4.2819
     4.5847   4.7469   4.9662   5.1464   5.2156   5.2841   5.5065   5.5319
     7.2883   7.5525   7.7179   7.7930   7.8383   7.8515   7.9918   8.0421
     8.0949   8.1930   8.2333   8.2859   8.3191   8.4795   8.5002   8.5442
     8.5972   8.6417   8.7654   8.8073   8.8998   8.9725   9.0487   9.1005

          k = 0.2500 0.0000 0.0500 ( 16993 PWs)   bands (ev):

    -9.0936  -9.0935  -9.0807  -9.0805  -9.0374  -9.0373  -9.0280  -9.0278
    -9.0249  -9.0247  -9.0035  -9.0032  -8.9885  -8.9882  -8.9719  -8.9717
    -8.9692  -8.9689  -8.9665  -8.9664  -8.9635  -8.9634  -8.9618  -8.9615
    -8.9462  -8.9456  -8.9434  -8.9431  -8.9416  -8.9413  -8.9370  -8.9361
    -8.9277  -8.9275  -8.9270  -8.9266  -8.9261  -8.9252  -8.9219  -8.9216
    -6.4476  -6.3977  -6.1156  -5.9485  -5.7193  -5.4375  -5.1353  -4.9238
    -4.8953  -4.8246  -4.8231  -4.7431  -4.6611  -4.5785  -4.5554  -4.5120
    -4.4699  -4.4073  -4.3819  -4.3704  -0.7353  -0.7321  -0.3879  -0.3332
    -0.3277  -0.2333   0.2289   0.3646   0.4057   0.4482   0.5561   0.6197
     0.6555   0.8174   1.2662   1.7864   1.9280   1.9980   2.0221   2.2018
     2.2568   2.3226   2.5055   2.5979   2.7367   2.7507   2.8644   2.8671
     2.8913   2.9127   3.0181   3.0780   3.0846   3.2100   3.3122   3.3884
     3.3971   3.4007   3.4226   3.4351   3.4419   3.4677   3.5102   3.5246
     3.6197   3.6342   3.6616   3.6949   3.8045   3.9492   4.0710   4.2996
     4.4466   4.7709   4.8581   5.0878   5.1495   5.2429   5.4289   5.4796
     7.3538   7.6613   7.7410   7.8708   7.9762   8.0598   8.1574   8.1912
     8.2305   8.2851   8.3636   8.3842   8.4543   8.5426   8.6887   8.7041
     8.8069   8.8604   8.9620   8.9853   9.0017   9.0412   9.1033   9.1246

          k = 0.2812 0.0000 0.0562 ( 17001 PWs)   bands (ev):

    -9.0919  -9.0917  -9.0799  -9.0798  -9.0363  -9.0361  -9.0272  -9.0271
    -9.0246  -9.0245  -9.0063  -9.0060  -8.9878  -8.9876  -8.9729  -8.9727
    -8.9696  -8.9694  -8.9675  -8.9674  -8.9653  -8.9652  -8.9633  -8.9631
    -8.9452  -8.9446  -8.9428  -8.9425  -8.9408  -8.9405  -8.9366  -8.9357
    -8.9281  -8.9279  -8.9275  -8.9271  -8.9266  -8.9256  -8.9224  -8.9221
    -6.3874  -6.3401  -6.0579  -5.9095  -5.6571  -5.4151  -5.0853  -5.0328
    -5.0041  -4.9084  -4.8270  -4.8178  -4.7194  -4.6325  -4.5379  -4.5314
    -4.4848  -4.4062  -4.3878  -4.3700  -0.6972  -0.6960  -0.3774  -0.2495
    -0.2291  -0.2229   0.2604   0.4075   0.4461   0.4577   0.6419   0.7384
     0.7393   0.7955   1.2003   1.6320   1.9095   1.9713   2.0178   2.1993
     2.2081   2.2138   2.4958   2.5702   2.6384   2.6450   2.7133   2.7599
     2.8434   2.8924   2.9365   2.9802   3.0360   3.1937   3.2875   3.3362
     3.3457   3.4351   3.4924   3.5062   3.5140   3.5246   3.5317   3.5700
     3.6774   3.6863   3.6962   3.7687   3.8022   3.8324   3.9579   4.3022
     4.3757   4.7454   4.7863   4.9572   5.0622   5.2407   5.3264   5.4259
     7.4278   7.7663   7.7847   7.9564   8.0796   8.2778   8.3176   8.3403
     8.3409   8.3955   8.4667   8.5379   8.6231   8.6878   8.8190   8.8772
     8.9031   8.9910   9.0412   9.1356   9.1537   9.1940   9.2302   9.2556

          k = 0.3125 0.0000 0.0625 ( 17006 PWs)   bands (ev):

    -9.0901  -9.0899  -9.0793  -9.0792  -9.0350  -9.0348  -9.0264  -9.0263
    -9.0244  -9.0242  -9.0091  -9.0088  -8.9868  -8.9866  -8.9738  -8.9737
    -8.9699  -8.9698  -8.9687  -8.9685  -8.9672  -8.9670  -8.9648  -8.9647
    -8.9441  -8.9436  -8.9420  -8.9418  -8.9401  -8.9397  -8.9362  -8.9354
    -8.9286  -8.9284  -8.9280  -8.9276  -8.9269  -8.9261  -8.9232  -8.9229
    -6.3208  -6.2762  -5.9945  -5.8643  -5.5908  -5.3878  -5.1447  -5.1159
    -5.0339  -4.9962  -4.9156  -4.8080  -4.7797  -4.6924  -4.5651  -4.5087
    -4.5030  -4.4048  -4.3931  -4.3695  -0.6586  -0.6573  -0.3705  -0.2668
    -0.1307  -0.1213   0.2937   0.4406   0.4520   0.5257   0.6646   0.7380
     0.8728   0.9477   1.1286   1.4823   1.9019   1.9408   2.0535   2.0722
     2.1700   2.2351   2.4038   2.4908   2.5546   2.5572   2.6452   2.6533
     2.7961   2.8066   2.9274   2.9453   2.9906   3.0627   3.1924   3.2693
     3.3360   3.3728   3.4601   3.4858   3.5521   3.6029   3.6098   3.6553
     3.7070   3.7370   3.8238   3.8472   3.8519   3.8849   3.9139   4.1548
     4.4517   4.6359   4.7777   4.8251   4.9694   5.1374   5.2869   5.3536
     7.5099   7.8054   7.9035   8.0170   8.2483   8.4010   8.4197   8.4743
     8.4974   8.5738   8.5817   8.7208   8.7467   8.8795   8.9064   8.9369
     8.9799   9.0146   9.1402   9.2368   9.2386   9.3159   9.3348   9.4235

          k = 0.3437 0.0000 0.0687 ( 17006 PWs)   bands (ev):

    -9.0882  -9.0880  -9.0788  -9.0787  -9.0336  -9.0335  -9.0256  -9.0255
    -9.0241  -9.0239  -9.0119  -9.0116  -8.9857  -8.9856  -8.9746  -8.9745
    -8.9703  -8.9701  -8.9700  -8.9699  -8.9689  -8.9687  -8.9662  -8.9660
    -8.9431  -8.9426  -8.9411  -8.9408  -8.9393  -8.9389  -8.9360  -8.9352
    -8.9290  -8.9288  -8.9285  -8.9281  -8.9273  -8.9265  -8.9241  -8.9238
    -6.2479  -6.2060  -5.9258  -5.8130  -5.5208  -5.3559  -5.2577  -5.2288
    -5.0852  -5.0074  -4.9821  -4.8409  -4.7952  -4.7577  -4.5932  -4.5251
    -4.4874  -4.4033  -4.3978  -4.3696  -0.6200  -0.6168  -0.3683  -0.2858
    -0.0407  -0.0240   0.3290   0.4319   0.4992   0.5942   0.6103   0.8428
     1.0228   1.0515   1.1107   1.3399   1.9044   1.9318   1.9418   2.1011
     2.1460   2.2639   2.3001   2.3262   2.4549   2.4704   2.5493   2.6645
     2.7301   2.7759   2.9102   2.9138   2.9502   2.9704   3.0521   3.1475
     3.1939   3.2785   3.4649   3.5102   3.6170   3.6846   3.7049   3.7480
     3.7580   3.7982   3.8231   3.8696   3.9375   4.0065   4.0174   4.0544
     4.5114   4.5341   4.6856   4.7414   4.8942   4.9952   5.2453   5.2633
     7.6000   7.8484   8.0226   8.1057   8.4336   8.4569   8.5184   8.5328
     8.6195   8.7506   8.8284   8.8368   8.8745   8.9206   8.9295   9.0165
     9.0684   9.1106   9.2097   9.2301   9.3001   9.3431   9.5619   9.5828

          k = 0.3750 0.0000 0.0750 ( 17010 PWs)   bands (ev):

    -9.0863  -9.0862  -9.0785  -9.0784  -9.0321  -9.0319  -9.0250  -9.0250
    -9.0238  -9.0236  -9.0147  -9.0145  -8.9846  -8.9845  -8.9752  -8.9751
    -8.9715  -8.9714  -8.9705  -8.9705  -8.9704  -8.9703  -8.9673  -8.9672
    -8.9420  -8.9415  -8.9402  -8.9400  -8.9386  -8.9383  -8.9359  -8.9351
    -8.9293  -8.9291  -8.9291  -8.9286  -8.9277  -8.9269  -8.9250  -8.9247
    -6.1692  -6.1299  -5.8523  -5.7557  -5.4477  -5.3705  -5.3416  -5.3193
    -5.1746  -5.1011  -4.9306  -4.9023  -4.8274  -4.7793  -4.6218  -4.5512
    -4.4681  -4.4017  -4.4012  -4.3708  -0.5809  -0.5765  -0.3713  -0.3075
     0.0395   0.0683   0.3671   0.4198   0.5284   0.5503   0.7113   0.9548
     0.9697   1.1873   1.2068   1.2831   1.8083   1.9179   1.9431   2.1116
     2.1178   2.1777   2.2519   2.3137   2.3678   2.3921   2.4492   2.5367
     2.7358   2.7626   2.8219   2.8901   2.9034   2.9193   2.9550   3.0190
     3.1109   3.1162   3.5599   3.5636   3.6491   3.6875   3.7740   3.7785
     3.8100   3.8186   3.8637   3.9322   3.9830   4.0211   4.1760   4.1885
     4.4158   4.5442   4.5792   4.6592   4.8344   4.8604   5.1579   5.1720
     7.6980   7.8974   8.1451   8.2428   8.4335   8.5120   8.5455   8.7277
     8.7591   8.8288   8.8788   8.9407   8.9568   9.0195   9.0297   9.0592
     9.1112   9.2296   9.3218   9.3252   9.3844   9.4263   9.6207   9.6450

          k = 0.4062 0.0000 0.0812 ( 16995 PWs)   bands (ev):

    -9.0845  -9.0844  -9.0784  -9.0784  -9.0304  -9.0302  -9.0245  -9.0244
    -9.0236  -9.0235  -9.0174  -9.0172  -8.9832  -8.9831  -8.9756  -8.9755
    -8.9731  -8.9730  -8.9720  -8.9718  -8.9706  -8.9705  -8.9682  -8.9681
    -8.9410  -8.9405  -8.9394  -8.9391  -8.9381  -8.9378  -8.9359  -8.9352
    -8.9295  -8.9293  -8.9292  -8.9289  -8.9281  -8.9274  -8.9259  -8.9256
    -6.0847  -6.0480  -5.7746  -5.6924  -5.4821  -5.4530  -5.3721  -5.2784
    -5.2636  -5.1953  -4.9630  -4.9007  -4.8804  -4.7603  -4.6512  -4.5810
    -4.4512  -4.4054  -4.3987  -4.3728  -0.5415  -0.5374  -0.3797  -0.3323
     0.1103   0.1540   0.4035   0.4102   0.4676   0.6057   0.8274   0.8829
     1.0726   1.0860   1.3648   1.4633   1.6710   1.9319   1.9460   1.9703
     2.1143   2.2052   2.2550   2.2930   2.3219   2.3541   2.3613   2.4159
     2.5548   2.6964   2.7568   2.8354   2.8600   2.8846   2.9342   2.9627
     3.0303   3.0847   3.5445   3.6258   3.6680   3.7090   3.7635   3.7973
     3.8292   3.8725   3.9108   3.9526   4.1241   4.1737   4.3098   4.3130
     4.3227   4.4150   4.5547   4.5866   4.7249   4.8049   5.0404   5.0685
     7.8033   7.9524   8.2930   8.3679   8.4090   8.5094   8.5560   8.7746
     8.8368   8.9054   8.9092   8.9844   9.0352   9.0881   9.1220   9.1794
     9.3330   9.3475   9.3545   9.4133   9.4920   9.5171   9.6866   9.7074

          k = 0.4375 0.0000 0.0875 ( 16984 PWs)   bands (ev):

    -9.0828  -9.0827  -9.0787  -9.0786  -9.0286  -9.0284  -9.0240  -9.0239
    -9.0234  -9.0233  -9.0199  -9.0198  -8.9817  -8.9817  -8.9757  -8.9757
    -8.9748  -8.9748  -8.9733  -8.9731  -8.9705  -8.9704  -8.9689  -8.9688
    -8.9401  -8.9396  -8.9386  -8.9383  -8.9378  -8.9374  -8.9360  -8.9354
    -8.9296  -8.9293  -8.9292  -8.9289  -8.9284  -8.9278  -8.9268  -8.9265
    -5.9950  -5.9605  -5.6936  -5.6229  -5.5915  -5.5621  -5.3518  -5.2946
    -5.2886  -5.2332  -5.0225  -4.9767  -4.8325  -4.7378  -4.6815  -4.6136
    -4.4374  -4.4089  -4.3953  -4.3763  -0.5023  -0.5006  -0.3937  -0.3607
     0.1738   0.2296   0.3795   0.4140   0.4623   0.6660   0.7914   0.9562
     0.9792   1.1959   1.5298   1.5531   1.6496   1.7633   1.9906   2.0106
     2.1202   2.1761   2.2306   2.2596   2.2644   2.3020   2.3448   2.3680
     2.4200   2.4789   2.7286   2.7722   2.8181   2.8478   2.8702   2.9607
     3.0434   3.1459   3.4530   3.5683   3.6863   3.7752   3.8101   3.8302
     3.8452   3.9252   3.9851   4.0178   4.2063   4.2836   4.2890   4.3255
     4.4294   4.4449   4.4488   4.5008   4.6808   4.7528   4.9128   4.9401
     7.9145   8.0138   8.2896   8.4113   8.4714   8.5880   8.5989   8.7564
     8.8412   8.8941   8.9014   9.0103   9.1686   9.1867   9.2801   9.3642
     9.3748   9.3859   9.4219   9.5490   9.5575   9.5657   9.6613   9.6785

          k = 0.4687 0.0000 0.0937 ( 16986 PWs)   bands (ev):

    -9.0813  -9.0813  -9.0793  -9.0792  -9.0267  -9.0266  -9.0238  -9.0237
    -9.0233  -9.0232  -9.0223  -9.0221  -8.9802  -8.9800  -8.9766  -8.9765
    -8.9756  -8.9756  -8.9743  -8.9742  -8.9704  -8.9703  -8.9696  -8.9694
    -8.9392  -8.9387  -8.9379  -8.9378  -8.9377  -8.9372  -8.9365  -8.9359
    -8.9295  -8.9291  -8.9291  -8.9288  -8.9287  -8.9282  -8.9277  -8.9274
    -5.9003  -5.8677  -5.6981  -5.6680  -5.6101  -5.5474  -5.4389  -5.3793
    -5.2163  -5.1839  -5.0807  -5.0540  -4.7882  -4.7135  -4.7114  -4.6477
    -4.4266  -4.4132  -4.3911  -4.3808  -0.4671  -0.4640  -0.4132  -0.3925
     0.2321   0.2910   0.3388   0.3739   0.5279   0.6980   0.7320   0.8863
     1.0945   1.3251   1.3849   1.6068   1.7492   1.8403   2.0512   2.0636
     2.1366   2.1374   2.1666   2.1837   2.1854   2.2116   2.2194   2.2779
     2.4452   2.4888   2.6386   2.6868   2.7995   2.8395   2.8537   2.8984
     3.1588   3.2193   3.3627   3.4330   3.7477   3.8085   3.8337   3.8782
     3.8999   3.9375   4.0971   4.1050   4.1292   4.1567   4.3309   4.3733
     4.4549   4.4728   4.5364   4.5521   4.6571   4.6872   4.7783   4.7943
     8.0272   8.0844   8.2091   8.2936   8.6429   8.6736   8.7285   8.7667
     8.7975   8.8199   8.9537   9.0759   9.1050   9.3034   9.3279   9.3830
     9.3909   9.4242   9.5271   9.5450   9.6076   9.6169   9.6722   9.6868

          k = 0.5000 0.0000 0.1000 ( 16992 PWs)   bands (ev):

    -9.0802  -9.0802  -9.0801  -9.0801  -9.0248  -9.0248  -9.0246  -9.0246
    -9.0233  -9.0233  -9.0232  -9.0232  -8.9784  -8.9784  -8.9783  -8.9783
    -8.9752  -8.9752  -8.9751  -8.9751  -8.9701  -8.9701  -8.9699  -8.9699
    -8.9385  -8.9385  -8.9381  -8.9381  -8.9370  -8.9370  -8.9365  -8.9365
    -8.9292  -8.9292  -8.9287  -8.9287  -8.9284  -8.9284  -8.9281  -8.9281
    -5.8012  -5.8012  -5.7700  -5.7700  -5.5251  -5.5251  -5.4660  -5.4660
    -5.1414  -5.1414  -5.1274  -5.1274  -4.7486  -4.7486  -4.6811  -4.6811
    -4.4189  -4.4189  -4.3861  -4.3861  -0.4378  -0.4378  -0.4271  -0.4271
     0.2871   0.2871   0.3374   0.3374   0.6080   0.6080   0.8048   0.8048
     1.2387   1.2387   1.4614   1.4614   1.9487   1.9487   2.0304   2.0304
     2.1205   2.1205   2.1389   2.1389   2.1628   2.1628   2.1799   2.1799
     2.5478   2.5478   2.5736   2.5736   2.8298   2.8298   2.8552   2.8552
     3.2696   3.2696   3.3113   3.3113   3.7950   3.7950   3.8473   3.8473
     4.0031   4.0031   4.0384   4.0384   4.2144   4.2144   4.2471   4.2471
     4.5989   4.5989   4.5996   4.5996   4.6468   4.6468   4.6485   4.6485
     8.1264   8.1264   8.1776   8.1776   8.6983   8.6983   8.7652   8.7652
     8.8842   8.8842   8.9308   8.9308   9.1929   9.1929   9.3794   9.3794
     9.4713   9.4713   9.4972   9.4972   9.6144   9.6144   9.6564   9.6564

          k = 0.4687 0.0000 0.0937 ( 16986 PWs)   bands (ev):

    -9.0813  -9.0813  -9.0793  -9.0792  -9.0267  -9.0266  -9.0238  -9.0237
    -9.0233  -9.0232  -9.0223  -9.0221  -8.9802  -8.9800  -8.9766  -8.9765
    -8.9756  -8.9756  -8.9743  -8.9742  -8.9704  -8.9703  -8.9696  -8.9694
    -8.9392  -8.9387  -8.9379  -8.9378  -8.9377  -8.9372  -8.9365  -8.9359
    -8.9295  -8.9291  -8.9291  -8.9288  -8.9287  -8.9282  -8.9277  -8.9274
    -5.9003  -5.8677  -5.6981  -5.6680  -5.6101  -5.5474  -5.4389  -5.3793
    -5.2163  -5.1839  -5.0807  -5.0540  -4.7882  -4.7135  -4.7114  -4.6477
    -4.4266  -4.4132  -4.3911  -4.3808  -0.4671  -0.4640  -0.4132  -0.3925
     0.2321   0.2910   0.3388   0.3739   0.5279   0.6980   0.7320   0.8863
     1.0945   1.3251   1.3849   1.6068   1.7492   1.8403   2.0512   2.0636
     2.1366   2.1374   2.1666   2.1837   2.1854   2.2116   2.2194   2.2779
     2.4452   2.4888   2.6386   2.6868   2.7995   2.8395   2.8537   2.8984
     3.1588   3.2193   3.3627   3.4330   3.7477   3.8085   3.8337   3.8782
     3.8999   3.9375   4.0971   4.1050   4.1292   4.1567   4.3309   4.3733
     4.4549   4.4728   4.5364   4.5521   4.6571   4.6872   4.7783   4.7943
     8.0272   8.0844   8.2091   8.2936   8.6429   8.6736   8.7285   8.7667
     8.7975   8.8199   8.9537   9.0759   9.1050   9.3034   9.3279   9.3830
     9.3909   9.4242   9.5271   9.5450   9.6076   9.6169   9.6722   9.6868

          k = 0.4375 0.0000 0.0875 ( 16984 PWs)   bands (ev):

    -9.0828  -9.0827  -9.0787  -9.0786  -9.0286  -9.0284  -9.0240  -9.0239
    -9.0234  -9.0233  -9.0199  -9.0198  -8.9817  -8.9817  -8.9757  -8.9757
    -8.9748  -8.9748  -8.9733  -8.9731  -8.9705  -8.9704  -8.9689  -8.9688
    -8.9401  -8.9396  -8.9386  -8.9383  -8.9378  -8.9374  -8.9360  -8.9354
    -8.9296  -8.9293  -8.9292  -8.9289  -8.9284  -8.9278  -8.9268  -8.9265
    -5.9950  -5.9605  -5.6936  -5.6229  -5.5915  -5.5621  -5.3518  -5.2946
    -5.2886  -5.2332  -5.0225  -4.9767  -4.8325  -4.7378  -4.6815  -4.6136
    -4.4374  -4.4089  -4.3953  -4.3763  -0.5023  -0.5006  -0.3937  -0.3607
     0.1738   0.2296   0.3795   0.4140   0.4623   0.6660   0.7914   0.9562
     0.9792   1.1959   1.5298   1.5531   1.6496   1.7633   1.9906   2.0106
     2.1202   2.1761   2.2306   2.2596   2.2644   2.3020   2.3448   2.3680
     2.4200   2.4789   2.7286   2.7722   2.8181   2.8478   2.8702   2.9607
     3.0434   3.1459   3.4530   3.5683   3.6863   3.7752   3.8101   3.8302
     3.8452   3.9252   3.9851   4.0178   4.2063   4.2836   4.2890   4.3255
     4.4294   4.4449   4.4488   4.5008   4.6808   4.7528   4.9128   4.9401
     7.9145   8.0138   8.2896   8.4113   8.4714   8.5880   8.5989   8.7564
     8.8412   8.8941   8.9014   9.0103   9.1686   9.1867   9.2801   9.3642
     9.3748   9.3859   9.4219   9.5490   9.5575   9.5657   9.6613   9.6785

          k = 0.4062 0.0000 0.0812 ( 16995 PWs)   bands (ev):

    -9.0845  -9.0844  -9.0784  -9.0784  -9.0304  -9.0302  -9.0245  -9.0244
    -9.0236  -9.0235  -9.0174  -9.0172  -8.9832  -8.9831  -8.9756  -8.9755
    -8.9731  -8.9730  -8.9720  -8.9718  -8.9706  -8.9705  -8.9682  -8.9681
    -8.9410  -8.9405  -8.9394  -8.9391  -8.9381  -8.9378  -8.9359  -8.9352
    -8.9295  -8.9293  -8.9292  -8.9289  -8.9281  -8.9274  -8.9259  -8.9256
    -6.0847  -6.0480  -5.7746  -5.6924  -5.4821  -5.4530  -5.3721  -5.2784
    -5.2636  -5.1953  -4.9630  -4.9007  -4.8804  -4.7603  -4.6512  -4.5810
    -4.4512  -4.4054  -4.3987  -4.3728  -0.5415  -0.5374  -0.3797  -0.3323
     0.1103   0.1540   0.4035   0.4102   0.4676   0.6057   0.8274   0.8829
     1.0726   1.0860   1.3648   1.4633   1.6710   1.9319   1.9460   1.9703
     2.1143   2.2052   2.2550   2.2930   2.3219   2.3541   2.3613   2.4159
     2.5548   2.6964   2.7568   2.8354   2.8600   2.8846   2.9342   2.9627
     3.0303   3.0847   3.5445   3.6258   3.6680   3.7090   3.7635   3.7973
     3.8292   3.8725   3.9108   3.9526   4.1241   4.1737   4.3098   4.3130
     4.3227   4.4150   4.5547   4.5866   4.7249   4.8049   5.0404   5.0685
     7.8033   7.9524   8.2930   8.3679   8.4090   8.5094   8.5560   8.7746
     8.8368   8.9054   8.9092   8.9844   9.0352   9.0881   9.1220   9.1794
     9.3330   9.3475   9.3545   9.4133   9.4920   9.5171   9.6866   9.7074

          k = 0.3750 0.0000 0.0750 ( 17010 PWs)   bands (ev):

    -9.0863  -9.0862  -9.0785  -9.0784  -9.0321  -9.0319  -9.0250  -9.0250
    -9.0238  -9.0236  -9.0147  -9.0145  -8.9846  -8.9845  -8.9752  -8.9751
    -8.9715  -8.9714  -8.9705  -8.9705  -8.9704  -8.9703  -8.9673  -8.9672
    -8.9420  -8.9415  -8.9402  -8.9400  -8.9386  -8.9383  -8.9359  -8.9351
    -8.9293  -8.9291  -8.9291  -8.9286  -8.9277  -8.9269  -8.9250  -8.9247
    -6.1692  -6.1299  -5.8523  -5.7557  -5.4477  -5.3705  -5.3416  -5.3193
    -5.1746  -5.1011  -4.9306  -4.9023  -4.8274  -4.7793  -4.6218  -4.5512
    -4.4681  -4.4017  -4.4012  -4.3708  -0.5809  -0.5765  -0.3713  -0.3075
     0.0395   0.0683   0.3671   0.4198   0.5284   0.5503   0.7113   0.9548
     0.9697   1.1873   1.2068   1.2831   1.8083   1.9179   1.9431   2.1116
     2.1178   2.1777   2.2519   2.3137   2.3678   2.3921   2.4492   2.5367
     2.7358   2.7626   2.8219   2.8901   2.9034   2.9193   2.9550   3.0190
     3.1109   3.1162   3.5599   3.5636   3.6491   3.6875   3.7740   3.7785
     3.8100   3.8186   3.8637   3.9322   3.9830   4.0211   4.1760   4.1885
     4.4158   4.5442   4.5792   4.6592   4.8344   4.8604   5.1579   5.1720
     7.6980   7.8974   8.1451   8.2428   8.4335   8.5120   8.5455   8.7277
     8.7591   8.8288   8.8788   8.9407   8.9568   9.0195   9.0297   9.0592
     9.1112   9.2296   9.3218   9.3252   9.3844   9.4263   9.6207   9.6450

          k = 0.3437 0.0000 0.0687 ( 17006 PWs)   bands (ev):

    -9.0882  -9.0880  -9.0788  -9.0787  -9.0336  -9.0335  -9.0256  -9.0255
    -9.0241  -9.0239  -9.0119  -9.0116  -8.9857  -8.9856  -8.9746  -8.9745
    -8.9703  -8.9701  -8.9700  -8.9699  -8.9689  -8.9687  -8.9662  -8.9660
    -8.9431  -8.9426  -8.9411  -8.9408  -8.9393  -8.9389  -8.9360  -8.9352
    -8.9290  -8.9288  -8.9285  -8.9281  -8.9273  -8.9265  -8.9241  -8.9238
    -6.2479  -6.2060  -5.9258  -5.8130  -5.5208  -5.3559  -5.2577  -5.2288
    -5.0852  -5.0074  -4.9821  -4.8409  -4.7952  -4.7577  -4.5932  -4.5251
    -4.4874  -4.4033  -4.3978  -4.3696  -0.6200  -0.6168  -0.3683  -0.2858
    -0.0407  -0.0240   0.3290   0.4319   0.4992   0.5942   0.6103   0.8428
     1.0228   1.0515   1.1107   1.3399   1.9044   1.9318   1.9418   2.1011
     2.1460   2.2639   2.3001   2.3262   2.4549   2.4704   2.5493   2.6645
     2.7301   2.7759   2.9102   2.9138   2.9502   2.9704   3.0521   3.1475
     3.1939   3.2785   3.4649   3.5102   3.6170   3.6846   3.7049   3.7480
     3.7580   3.7982   3.8231   3.8696   3.9375   4.0065   4.0174   4.0544
     4.5114   4.5341   4.6856   4.7414   4.8942   4.9952   5.2453   5.2633
     7.6000   7.8484   8.0226   8.1057   8.4336   8.4569   8.5184   8.5328
     8.6195   8.7506   8.8284   8.8368   8.8745   8.9206   8.9295   9.0165
     9.0684   9.1106   9.2097   9.2301   9.3001   9.3431   9.5619   9.5828

          k = 0.3125 0.0000 0.0625 ( 17006 PWs)   bands (ev):

    -9.0901  -9.0899  -9.0793  -9.0792  -9.0350  -9.0348  -9.0264  -9.0263
    -9.0244  -9.0242  -9.0091  -9.0088  -8.9868  -8.9866  -8.9738  -8.9737
    -8.9699  -8.9698  -8.9687  -8.9685  -8.9672  -8.9670  -8.9648  -8.9647
    -8.9441  -8.9436  -8.9420  -8.9418  -8.9401  -8.9397  -8.9362  -8.9354
    -8.9286  -8.9284  -8.9280  -8.9276  -8.9269  -8.9261  -8.9232  -8.9229
    -6.3208  -6.2762  -5.9945  -5.8643  -5.5908  -5.3878  -5.1447  -5.1159
    -5.0339  -4.9962  -4.9156  -4.8080  -4.7797  -4.6924  -4.5651  -4.5087
    -4.5030  -4.4048  -4.3931  -4.3695  -0.6586  -0.6573  -0.3705  -0.2668
    -0.1307  -0.1213   0.2937   0.4406   0.4520   0.5257   0.6646   0.7380
     0.8728   0.9477   1.1286   1.4823   1.9019   1.9408   2.0535   2.0722
     2.1700   2.2351   2.4038   2.4908   2.5546   2.5572   2.6452   2.6533
     2.7961   2.8066   2.9274   2.9453   2.9906   3.0627   3.1924   3.2693
     3.3360   3.3728   3.4601   3.4858   3.5521   3.6029   3.6098   3.6553
     3.7070   3.7370   3.8238   3.8472   3.8519   3.8849   3.9139   4.1548
     4.4517   4.6359   4.7777   4.8251   4.9694   5.1374   5.2869   5.3536
     7.5099   7.8054   7.9035   8.0170   8.2483   8.4010   8.4197   8.4743
     8.4974   8.5738   8.5817   8.7208   8.7467   8.8795   8.9064   8.9369
     8.9799   9.0146   9.1402   9.2368   9.2386   9.3159   9.3348   9.4235

          k = 0.2812 0.0000 0.0562 ( 17001 PWs)   bands (ev):

    -9.0919  -9.0917  -9.0799  -9.0798  -9.0363  -9.0361  -9.0272  -9.0271
    -9.0246  -9.0245  -9.0063  -9.0060  -8.9878  -8.9876  -8.9729  -8.9727
    -8.9696  -8.9694  -8.9675  -8.9674  -8.9653  -8.9652  -8.9633  -8.9631
    -8.9452  -8.9446  -8.9428  -8.9425  -8.9408  -8.9405  -8.9366  -8.9357
    -8.9281  -8.9279  -8.9275  -8.9271  -8.9266  -8.9256  -8.9224  -8.9221
    -6.3874  -6.3401  -6.0579  -5.9095  -5.6571  -5.4151  -5.0853  -5.0328
    -5.0041  -4.9084  -4.8270  -4.8178  -4.7194  -4.6325  -4.5379  -4.5314
    -4.4848  -4.4062  -4.3878  -4.3700  -0.6972  -0.6960  -0.3774  -0.2495
    -0.2291  -0.2229   0.2604   0.4075   0.4461   0.4577   0.6419   0.7384
     0.7393   0.7955   1.2003   1.6320   1.9095   1.9713   2.0178   2.1993
     2.2081   2.2138   2.4958   2.5702   2.6384   2.6450   2.7133   2.7599
     2.8434   2.8924   2.9365   2.9802   3.0360   3.1937   3.2875   3.3362
     3.3457   3.4351   3.4924   3.5062   3.5140   3.5246   3.5317   3.5700
     3.6774   3.6863   3.6962   3.7687   3.8022   3.8324   3.9579   4.3022
     4.3757   4.7454   4.7863   4.9572   5.0622   5.2407   5.3264   5.4259
     7.4278   7.7663   7.7847   7.9564   8.0796   8.2778   8.3176   8.3403
     8.3409   8.3955   8.4667   8.5379   8.6231   8.6878   8.8190   8.8772
     8.9031   8.9910   9.0412   9.1356   9.1537   9.1940   9.2302   9.2556

          k = 0.2500 0.0000 0.0500 ( 16993 PWs)   bands (ev):

    -9.0936  -9.0935  -9.0807  -9.0805  -9.0374  -9.0373  -9.0280  -9.0278
    -9.0249  -9.0247  -9.0035  -9.0032  -8.9885  -8.9882  -8.9719  -8.9717
    -8.9692  -8.9689  -8.9665  -8.9664  -8.9635  -8.9634  -8.9618  -8.9615
    -8.9462  -8.9456  -8.9434  -8.9431  -8.9416  -8.9413  -8.9370  -8.9361
    -8.9277  -8.9275  -8.9270  -8.9266  -8.9261  -8.9252  -8.9219  -8.9216
    -6.4476  -6.3977  -6.1156  -5.9485  -5.7193  -5.4375  -5.1353  -4.9238
    -4.8953  -4.8246  -4.8231  -4.7431  -4.6611  -4.5785  -4.5554  -4.5120
    -4.4699  -4.4073  -4.3819  -4.3704  -0.7353  -0.7321  -0.3879  -0.3332
    -0.3277  -0.2333   0.2289   0.3646   0.4057   0.4482   0.5561   0.6197
     0.6555   0.8174   1.2662   1.7864   1.9280   1.9980   2.0221   2.2018
     2.2568   2.3226   2.5055   2.5979   2.7367   2.7507   2.8644   2.8671
     2.8913   2.9127   3.0181   3.0780   3.0846   3.2100   3.3122   3.3884
     3.3971   3.4007   3.4226   3.4351   3.4419   3.4677   3.5102   3.5246
     3.6197   3.6342   3.6616   3.6949   3.8045   3.9492   4.0710   4.2996
     4.4466   4.7709   4.8581   5.0878   5.1495   5.2429   5.4289   5.4796
     7.3538   7.6613   7.7410   7.8708   7.9762   8.0598   8.1574   8.1912
     8.2305   8.2851   8.3636   8.3842   8.4543   8.5426   8.6887   8.7041
     8.8069   8.8604   8.9620   8.9853   9.0017   9.0412   9.1033   9.1246

          k = 0.2187 0.0000 0.0437 ( 16999 PWs)   bands (ev):

    -9.0953  -9.0951  -9.0815  -9.0813  -9.0385  -9.0383  -9.0288  -9.0287
    -9.0252  -9.0250  -9.0010  -9.0007  -8.9892  -8.9889  -8.9708  -8.9706
    -8.9687  -8.9684  -8.9656  -8.9655  -8.9618  -8.9618  -8.9603  -8.9600
    -8.9472  -8.9466  -8.9439  -8.9436  -8.9425  -8.9422  -8.9373  -8.9365
    -8.9274  -8.9272  -8.9265  -8.9262  -8.9258  -8.9247  -8.9212  -8.9209
    -6.5012  -6.4489  -6.1672  -5.9812  -5.7770  -5.4548  -5.1836  -4.8285
    -4.8198  -4.7917  -4.7412  -4.6655  -4.6059  -4.5798  -4.5314  -4.4880
    -4.4570  -4.4083  -4.3762  -4.3704  -0.7710  -0.7663  -0.4392  -0.4337
    -0.4011  -0.2177   0.1994   0.3243   0.3664   0.4471   0.4819   0.5166
     0.5289   0.8978   1.3246   1.9437   1.9579   1.9954   2.0915   2.1995
     2.3151   2.4408   2.4525   2.7055   2.8293   2.8438   2.8599   2.9454
     2.9729   3.0572   3.1072   3.1386   3.1399   3.2246   3.2789   3.3018
     3.3347   3.3586   3.3869   3.3961   3.4110   3.4204   3.4265   3.4729
     3.5621   3.5756   3.6884   3.7989   3.8249   4.1107   4.1803   4.2819
     4.5847   4.7469   4.9662   5.1464   5.2156   5.2841   5.5065   5.5319
     7.2883   7.5525   7.7179   7.7930   7.8383   7.8515   7.9918   8.0421
     8.0949   8.1930   8.2333   8.2859   8.3191   8.4795   8.5002   8.5442
     8.5972   8.6417   8.7654   8.8073   8.8998   8.9725   9.0487   9.1005

          k = 0.1875 0.0000 0.0375 ( 16982 PWs)   bands (ev):

    -9.0968  -9.0966  -9.0822  -9.0821  -9.0395  -9.0392  -9.0295  -9.0293
    -9.0255  -9.0253  -8.9984  -8.9982  -8.9897  -8.9893  -8.9698  -8.9695
    -8.9682  -8.9679  -8.9648  -8.9646  -8.9603  -8.9602  -8.9589  -8.9586
    -8.9482  -8.9475  -8.9443  -8.9441  -8.9432  -8.9429  -8.9377  -8.9368
    -8.9271  -8.9269  -8.9260  -8.9258  -8.9254  -8.9243  -8.9206  -8.9203
    -6.5480  -6.4934  -6.2125  -6.0076  -5.8298  -5.4671  -5.2295  -4.8296
    -4.7237  -4.6960  -4.6637  -4.6042  -4.5955  -4.5551  -4.4934  -4.4655
    -4.4436  -4.4091  -4.3700  -4.3692  -0.8036  -0.7980  -0.5430  -0.5377
    -0.4155  -0.2026   0.1723   0.2887   0.3356   0.4168   0.4195   0.4287
     0.4429   0.9794   1.3737   1.9983   2.0117   2.1013   2.1776   2.2074
     2.3819   2.4119   2.5520   2.8143   2.8308   2.9192   2.9668   3.0027
     3.0743   3.0769   3.0957   3.1539   3.1810   3.1856   3.2048   3.2773
     3.2938   3.3236   3.3532   3.3650   3.3809   3.3901   3.4229   3.4276
     3.5001   3.5297   3.8095   3.8513   3.9586   4.1178   4.2355   4.4631
     4.7136   4.7243   5.0606   5.0892   5.3332   5.3688   5.5185   5.6005
     7.2312   7.4668   7.6338   7.6896   7.7145   7.7501   7.7925   7.9534
     7.9583   8.0055   8.0469   8.2201   8.3004   8.3471   8.3652   8.3994
     8.4351   8.4830   8.5524   8.6526   8.7287   8.9028   8.9463   9.0804

          k = 0.1562 0.0000 0.0312 ( 16987 PWs)   bands (ev):

    -9.0981  -9.0979  -9.0829  -9.0828  -9.0403  -9.0400  -9.0303  -9.0301
    -9.0258  -9.0256  -8.9963  -8.9960  -8.9902  -8.9898  -8.9689  -8.9686
    -8.9677  -8.9674  -8.9640  -8.9638  -8.9591  -8.9589  -8.9578  -8.9575
    -8.9490  -8.9483  -8.9447  -8.9445  -8.9439  -8.9435  -8.9381  -8.9372
    -8.9269  -8.9268  -8.9257  -8.9255  -8.9251  -8.9240  -8.9199  -8.9197
    -6.5878  -6.5312  -6.2511  -6.0276  -5.8775  -5.4742  -5.2724  -4.8281
    -4.6394  -4.6281  -4.6122  -4.5909  -4.5346  -4.5098  -4.4701  -4.4400
    -4.4277  -4.4098  -4.3659  -4.3637  -0.8325  -0.8267  -0.6403  -0.6361
    -0.4301  -0.1880   0.1479   0.2592   0.3059   0.3248   0.3555   0.3687
     0.4364   1.0602   1.4117   2.0412   2.0551   2.2239   2.2560   2.2798
     2.3829   2.4577   2.6527   2.8234   2.9201   3.0036   3.0148   3.0343
     3.0483   3.0602   3.0683   3.1249   3.1320   3.1681   3.1831   3.2065
     3.2283   3.2696   3.3186   3.3257   3.3848   3.4044   3.4201   3.4398
     3.5703   3.6269   3.8117   3.9900   4.0742   4.0940   4.3226   4.5900
     4.7479   4.8316   5.0208   5.1733   5.4301   5.4499   5.5163   5.6314
     7.1827   7.4032   7.4509   7.5700   7.6100   7.6923   7.7408   7.7887
     7.8126   7.8760   7.9262   8.1179   8.1393   8.1909   8.1923   8.2893
     8.3589   8.3685   8.5225   8.5301   8.5888   8.7858   8.8403   8.9965

          k = 0.1250 0.0000 0.0250 ( 16990 PWs)   bands (ev):

    -9.0993  -9.0990  -9.0836  -9.0834  -9.0409  -9.0407  -9.0310  -9.0308
    -9.0260  -9.0258  -8.9945  -8.9942  -8.9905  -8.9902  -8.9679  -8.9676
    -8.9672  -8.9669  -8.9633  -8.9631  -8.9580  -8.9578  -8.9571  -8.9568
    -8.9497  -8.9491  -8.9450  -8.9448  -8.9444  -8.9441  -8.9384  -8.9375
    -8.9268  -8.9266  -8.9252  -8.9252  -8.9249  -8.9237  -8.9195  -8.9193
    -6.6206  -6.5623  -6.2830  -6.0412  -5.9197  -5.4762  -5.3121  -4.8244
    -4.6507  -4.5709  -4.5436  -4.5269  -4.4840  -4.4724  -4.4564  -4.4119
    -4.4104  -4.4099  -4.3594  -4.3567  -0.8570  -0.8516  -0.7272  -0.7246
    -0.4436  -0.1746   0.1268   0.2350   0.2358   0.2946   0.2967   0.3285
     0.4285   1.1385   1.4369   2.0933   2.1179   2.2505   2.3673   2.3941
     2.4040   2.5395   2.7396   2.8226   2.9045   2.9163   2.9775   3.0233
     3.0435   3.0624   3.0791   3.1145   3.1181   3.1420   3.1603   3.1695
     3.2494   3.2725   3.2892   3.2929   3.3301   3.3561   3.3919   3.5609
     3.7014   3.7566   3.8237   3.9786   4.1817   4.2168   4.3979   4.5835
     4.7621   4.9336   5.0972   5.2629   5.4412   5.5359   5.5495   5.6256
     7.1426   7.2927   7.3291   7.4477   7.5070   7.5856   7.6545   7.6852
     7.7603   7.8101   7.8479   7.9621   7.9970   8.0415   8.0979   8.1418
     8.2107   8.3483   8.3837   8.5124   8.5403   8.6561   8.8335   8.8615

          k = 0.0937 0.0000 0.0187 ( 17006 PWs)   bands (ev):

    -9.1001  -9.0999  -9.0841  -9.0839  -9.0414  -9.0412  -9.0315  -9.0312
    -9.0262  -9.0260  -8.9930  -8.9927  -8.9906  -8.9904  -8.9671  -8.9669
    -8.9668  -8.9666  -8.9628  -8.9626  -8.9572  -8.9572  -8.9566  -8.9563
    -8.9503  -8.9497  -8.9454  -8.9451  -8.9448  -8.9445  -8.9387  -8.9378
    -8.9266  -8.9265  -8.9251  -8.9250  -8.9248  -8.9236  -8.9192  -8.9189
    -6.6462  -6.5865  -6.3079  -6.0484  -5.9561  -5.4731  -5.3479  -4.8189
    -4.6711  -4.5192  -4.4926  -4.4816  -4.4609  -4.4368  -4.4326  -4.4108
    -4.3910  -4.3863  -4.3489  -4.3481  -0.8767  -0.8720  -0.7997  -0.7991
    -0.4550  -0.1629   0.1097   0.1713   0.2176   0.2517   0.2794   0.2982
     0.4204   1.2120   1.4481   2.1614   2.1909   2.2851   2.3651   2.5171
     2.5406   2.6258   2.7924   2.8072   2.8101   2.8331   2.8908   2.9528
     2.9704   3.0132   3.0848   3.1135   3.1424   3.1618   3.1964   3.2371
     3.2385   3.2663   3.2680   3.2791   3.2998   3.3265   3.4013   3.6630
     3.7701   3.8035   3.9168   3.9674   4.3120   4.3383   4.4570   4.5523
     4.6898   5.0168   5.2497   5.3423   5.4192   5.5575   5.6149   5.6325
     7.1102   7.1608   7.2352   7.2998   7.3977   7.5195   7.5263   7.6883
     7.7565   7.7790   7.8024   7.8480   7.8602   7.9240   8.0065   8.0437
     8.1083   8.2685   8.3319   8.4557   8.4668   8.5651   8.6967   8.7726

          k = 0.0625 0.0000 0.0125 ( 17035 PWs)   bands (ev):

    -9.1007  -9.1006  -9.0845  -9.0843  -9.0418  -9.0416  -9.0319  -9.0315
    -9.0264  -9.0261  -8.9919  -8.9916  -8.9909  -8.9906  -8.9667  -8.9665
    -8.9665  -8.9663  -8.9624  -8.9621  -8.9568  -8.9568  -8.9563  -8.9559
    -8.9508  -8.9502  -8.9455  -8.9453  -8.9451  -8.9448  -8.9389  -8.9380
    -8.9266  -8.9264  -8.9250  -8.9250  -8.9248  -8.9235  -8.9191  -8.9188
    -6.6645  -6.6039  -6.3258  -6.0492  -5.9866  -5.4651  -5.3795  -4.8128
[...]
    -5.1746  -5.1011  -4.9306  -4.9023  -4.8274  -4.7793  -4.6218  -4.5512
    -4.4681  -4.4017  -4.4012  -4.3708  -0.5809  -0.5765  -0.3713  -0.3075
     0.0395   0.0683   0.3671   0.4198   0.5284   0.5503   0.7113   0.9548
     0.9697   1.1873   1.2068   1.2831   1.8083   1.9179   1.9431   2.1116
     2.1178   2.1777   2.2519   2.3137   2.3678   2.3921   2.4492   2.5367
     2.7358   2.7626   2.8219   2.8901   2.9034   2.9193   2.9550   3.0190
     3.1109   3.1162   3.5599   3.5636   3.6491   3.6875   3.7740   3.7785
     3.8100   3.8186   3.8637   3.9322   3.9830   4.0211   4.1760   4.1885
     4.4158   4.5442   4.5792   4.6592   4.8344   4.8604   5.1579   5.1720
     7.6980   7.8975   8.1451   8.2428   8.4335   8.5120   8.5455   8.7277
     8.7591   8.8288   8.8788   8.9407   8.9568   9.0195   9.0297   9.0592
     9.1112   9.2296   9.3218   9.3252   9.3843   9.4262   9.6207   9.6450

          k = 0.3437 0.0000 0.0687 ( 17006 PWs)   bands (ev):

    -9.0882  -9.0880  -9.0788  -9.0787  -9.0336  -9.0335  -9.0256  -9.0255
    -9.0241  -9.0239  -9.0119  -9.0116  -8.9857  -8.9856  -8.9746  -8.9745
    -8.9703  -8.9701  -8.9700  -8.9699  -8.9689  -8.9687  -8.9662  -8.9660
    -8.9431  -8.9426  -8.9411  -8.9408  -8.9393  -8.9389  -8.9360  -8.9352
    -8.9290  -8.9288  -8.9285  -8.9281  -8.9273  -8.9265  -8.9241  -8.9238
    -6.2479  -6.2060  -5.9258  -5.8131  -5.5208  -5.3559  -5.2577  -5.2288
    -5.0852  -5.0074  -4.9821  -4.8409  -4.7952  -4.7577  -4.5932  -4.5251
    -4.4874  -4.4033  -4.3978  -4.3697  -0.6200  -0.6168  -0.3683  -0.2859
    -0.0407  -0.0240   0.3290   0.4319   0.4992   0.5942   0.6103   0.8428
     1.0228   1.0515   1.1107   1.3399   1.9044   1.9318   1.9418   2.1011
     2.1460   2.2639   2.3001   2.3262   2.4549   2.4704   2.5493   2.6645
     2.7301   2.7759   2.9102   2.9138   2.9502   2.9704   3.0521   3.1475
     3.1939   3.2785   3.4649   3.5102   3.6170   3.6846   3.7049   3.7480
     3.7580   3.7982   3.8231   3.8696   3.9375   4.0065   4.0174   4.0544
     4.5114   4.5341   4.6856   4.7414   4.8942   4.9952   5.2453   5.2633
     7.6000   7.8484   8.0227   8.1057   8.4336   8.4569   8.5184   8.5328
     8.6195   8.7507   8.8284   8.8368   8.8745   8.9206   8.9295   9.0165
     9.0684   9.1107   9.2097   9.2301   9.3001   9.3431   9.5619   9.5828

          k = 0.3125 0.0000 0.0625 ( 17006 PWs)   bands (ev):

    -9.0901  -9.0899  -9.0793  -9.0792  -9.0350  -9.0348  -9.0264  -9.0263
    -9.0244  -9.0242  -9.0091  -9.0088  -8.9868  -8.9866  -8.9738  -8.9737
    -8.9699  -8.9698  -8.9687  -8.9685  -8.9672  -8.9670  -8.9648  -8.9647
    -8.9441  -8.9436  -8.9420  -8.9418  -8.9401  -8.9397  -8.9362  -8.9354
    -8.9286  -8.9284  -8.9280  -8.9276  -8.9269  -8.9261  -8.9232  -8.9229
    -6.3208  -6.2762  -5.9945  -5.8643  -5.5908  -5.3878  -5.1447  -5.1158
    -5.0339  -4.9962  -4.9156  -4.8080  -4.7797  -4.6924  -4.5651  -4.5087
    -4.5029  -4.4048  -4.3931  -4.3695  -0.6586  -0.6573  -0.3705  -0.2668
    -0.1307  -0.1213   0.2937   0.4406   0.4520   0.5257   0.6647   0.7380
     0.8728   0.9477   1.1286   1.4823   1.9019   1.9408   2.0535   2.0722
     2.1700   2.2351   2.4038   2.4908   2.5546   2.5572   2.6452   2.6533
     2.7961   2.8066   2.9274   2.9453   2.9906   3.0627   3.1924   3.2693
     3.3360   3.3728   3.4601   3.4858   3.5521   3.6029   3.6098   3.6553
     3.7070   3.7370   3.8238   3.8472   3.8519   3.8849   3.9139   4.1548
     4.4517   4.6359   4.7777   4.8251   4.9694   5.1374   5.2869   5.3536
     7.5098   7.8054   7.9035   8.0170   8.2483   8.4010   8.4198   8.4743
     8.4974   8.5738   8.5816   8.7208   8.7468   8.8795   8.9064   8.9369
     8.9799   9.0146   9.1402   9.2368   9.2386   9.3159   9.3348   9.4235

          k = 0.2812 0.0000 0.0562 ( 17001 PWs)   bands (ev):

    -9.0919  -9.0917  -9.0799  -9.0798  -9.0363  -9.0361  -9.0272  -9.0271
    -9.0246  -9.0245  -9.0063  -9.0060  -8.9878  -8.9876  -8.9728  -8.9727
    -8.9696  -8.9694  -8.9675  -8.9674  -8.9653  -8.9652  -8.9633  -8.9631
    -8.9452  -8.9446  -8.9428  -8.9425  -8.9408  -8.9405  -8.9366  -8.9357
    -8.9281  -8.9279  -8.9275  -8.9271  -8.9266  -8.9256  -8.9224  -8.9221
    -6.3874  -6.3401  -6.0579  -5.9095  -5.6571  -5.4151  -5.0853  -5.0328
    -5.0041  -4.9084  -4.8270  -4.8178  -4.7194  -4.6325  -4.5379  -4.5314
    -4.4847  -4.4062  -4.3878  -4.3700  -0.6972  -0.6961  -0.3774  -0.2495
    -0.2291  -0.2230   0.2604   0.4075   0.4461   0.4577   0.6419   0.7384
     0.7393   0.7955   1.2003   1.6320   1.9095   1.9713   2.0178   2.1993
     2.2081   2.2138   2.4958   2.5702   2.6384   2.6450   2.7133   2.7599
     2.8434   2.8924   2.9365   2.9802   3.0360   3.1937   3.2875   3.3362
     3.3457   3.4351   3.4924   3.5062   3.5140   3.5246   3.5317   3.5700
     3.6774   3.6863   3.6962   3.7687   3.8022   3.8324   3.9579   4.3022
     4.3757   4.7454   4.7863   4.9572   5.0622   5.2407   5.3264   5.4259
     7.4278   7.7663   7.7847   7.9564   8.0796   8.2777   8.3176   8.3403
     8.3409   8.3955   8.4667   8.5379   8.6231   8.6878   8.8190   8.8772
     8.9031   8.9910   9.0412   9.1356   9.1537   9.1940   9.2302   9.2556

          k = 0.2500 0.0000 0.0500 ( 16993 PWs)   bands (ev):

    -9.0936  -9.0935  -9.0807  -9.0805  -9.0374  -9.0373  -9.0280  -9.0278
    -9.0249  -9.0247  -9.0035  -9.0032  -8.9885  -8.9882  -8.9719  -8.9717
    -8.9692  -8.9689  -8.9665  -8.9664  -8.9635  -8.9634  -8.9618  -8.9615
    -8.9462  -8.9456  -8.9434  -8.9431  -8.9416  -8.9413  -8.9370  -8.9361
    -8.9277  -8.9275  -8.9270  -8.9266  -8.9261  -8.9252  -8.9219  -8.9216
    -6.4476  -6.3977  -6.1156  -5.9485  -5.7193  -5.4375  -5.1353  -4.9238
    -4.8953  -4.8246  -4.8231  -4.7431  -4.6611  -4.5785  -4.5554  -4.5120
    -4.4699  -4.4073  -4.3819  -4.3704  -0.7353  -0.7321  -0.3879  -0.3332
    -0.3277  -0.2333   0.2289   0.3646   0.4057   0.4482   0.5561   0.6197
     0.6555   0.8174   1.2662   1.7864   1.9280   1.9980   2.0221   2.2018
     2.2568   2.3226   2.5055   2.5979   2.7367   2.7507   2.8644   2.8671
     2.8913   2.9127   3.0181   3.0780   3.0846   3.2100   3.3122   3.3884
     3.3971   3.4007   3.4226   3.4351   3.4419   3.4677   3.5102   3.5246
     3.6197   3.6342   3.6616   3.6949   3.8045   3.9492   4.0710   4.2996
     4.4466   4.7709   4.8581   5.0878   5.1495   5.2429   5.4289   5.4796
     7.3538   7.6613   7.7411   7.8708   7.9762   8.0598   8.1574   8.1912
     8.2305   8.2851   8.3636   8.3842   8.4543   8.5426   8.6887   8.7041
     8.8069   8.8604   8.9620   8.9853   9.0017   9.0412   9.1033   9.1246

          k = 0.2187 0.0000 0.0437 ( 16999 PWs)   bands (ev):

    -9.0953  -9.0951  -9.0815  -9.0813  -9.0385  -9.0383  -9.0288  -9.0287
    -9.0252  -9.0250  -9.0010  -9.0007  -8.9892  -8.9889  -8.9708  -8.9706
    -8.9687  -8.9684  -8.9656  -8.9655  -8.9618  -8.9618  -8.9603  -8.9600
    -8.9472  -8.9466  -8.9439  -8.9436  -8.9425  -8.9422  -8.9373  -8.9365
    -8.9274  -8.9272  -8.9265  -8.9262  -8.9258  -8.9247  -8.9212  -8.9209
    -6.5012  -6.4489  -6.1672  -5.9812  -5.7770  -5.4548  -5.1836  -4.8285
    -4.8198  -4.7917  -4.7412  -4.6655  -4.6059  -4.5798  -4.5314  -4.4880
    -4.4570  -4.4083  -4.3762  -4.3704  -0.7710  -0.7664  -0.4392  -0.4337
    -0.4011  -0.2177   0.1994   0.3243   0.3664   0.4470   0.4819   0.5166
     0.5289   0.8978   1.3246   1.9437   1.9579   1.9954   2.0915   2.1995
     2.3151   2.4408   2.4525   2.7055   2.8293   2.8438   2.8599   2.9454
     2.9729   3.0572   3.1072   3.1386   3.1399   3.2246   3.2789   3.3018
     3.3347   3.3586   3.3869   3.3961   3.4110   3.4204   3.4265   3.4729
     3.5621   3.5756   3.6884   3.7989   3.8249   4.1107   4.1803   4.2819
     4.5847   4.7469   4.9662   5.1464   5.2156   5.2841   5.5065   5.5319
     7.2883   7.5525   7.7180   7.7930   7.8383   7.8516   7.9918   8.0421
     8.0949   8.1930   8.2333   8.2859   8.3191   8.4795   8.5002   8.5442
     8.5972   8.6417   8.7654   8.8073   8.8998   8.9725   9.0487   9.1005

          k = 0.1875 0.0000 0.0375 ( 16982 PWs)   bands (ev):

    -9.0968  -9.0966  -9.0822  -9.0821  -9.0395  -9.0392  -9.0295  -9.0293
    -9.0255  -9.0253  -8.9984  -8.9982  -8.9897  -8.9893  -8.9698  -8.9695
    -8.9682  -8.9679  -8.9648  -8.9646  -8.9603  -8.9602  -8.9589  -8.9586
    -8.9481  -8.9475  -8.9443  -8.9441  -8.9432  -8.9429  -8.9377  -8.9368
    -8.9271  -8.9269  -8.9260  -8.9258  -8.9254  -8.9243  -8.9206  -8.9203
    -6.5480  -6.4934  -6.2124  -6.0076  -5.8298  -5.4671  -5.2295  -4.8296
    -4.7237  -4.6960  -4.6637  -4.6042  -4.5955  -4.5551  -4.4934  -4.4655
    -4.4436  -4.4091  -4.3700  -4.3692  -0.8036  -0.7981  -0.5430  -0.5377
    -0.4155  -0.2026   0.1723   0.2888   0.3356   0.4168   0.4195   0.4287
     0.4429   0.9794   1.3737   1.9983   2.0117   2.1013   2.1776   2.2074
     2.3819   2.4119   2.5520   2.8143   2.8308   2.9192   2.9669   3.0027
     3.0743   3.0769   3.0957   3.1539   3.1810   3.1856   3.2048   3.2773
     3.2938   3.3236   3.3532   3.3650   3.3809   3.3901   3.4229   3.4276
     3.5000   3.5297   3.8095   3.8513   3.9586   4.1178   4.2355   4.4631
     4.7136   4.7243   5.0606   5.0892   5.3332   5.3688   5.5185   5.6005
     7.2312   7.4668   7.6338   7.6896   7.7145   7.7501   7.7926   7.9534
     7.9583   8.0055   8.0469   8.2201   8.3004   8.3471   8.3652   8.3995
     8.4351   8.4830   8.5524   8.6526   8.7287   8.9028   8.9463   9.0804

          k = 0.1562 0.0000 0.0312 ( 16987 PWs)   bands (ev):

    -9.0981  -9.0979  -9.0829  -9.0828  -9.0403  -9.0400  -9.0303  -9.0301
    -9.0258  -9.0256  -8.9963  -8.9960  -8.9901  -8.9898  -8.9689  -8.9686
    -8.9677  -8.9674  -8.9640  -8.9638  -8.9591  -8.9589  -8.9578  -8.9575
    -8.9490  -8.9483  -8.9447  -8.9445  -8.9439  -8.9435  -8.9381  -8.9372
    -8.9269  -8.9268  -8.9257  -8.9255  -8.9251  -8.9240  -8.9199  -8.9197
    -6.5878  -6.5312  -6.2511  -6.0276  -5.8775  -5.4742  -5.2724  -4.8281
    -4.6394  -4.6281  -4.6122  -4.5909  -4.5346  -4.5098  -4.4700  -4.4400
    -4.4278  -4.4098  -4.3659  -4.3637  -0.8325  -0.8267  -0.6403  -0.6361
    -0.4301  -0.1880   0.1479   0.2592   0.3059   0.3247   0.3555   0.3687
     0.4364   1.0602   1.4117   2.0412   2.0551   2.2239   2.2560   2.2798
     2.3829   2.4577   2.6527   2.8234   2.9201   3.0036   3.0148   3.0343
     3.0483   3.0602   3.0683   3.1249   3.1320   3.1681   3.1831   3.2065
     3.2283   3.2696   3.3186   3.3257   3.3848   3.4044   3.4201   3.4398
     3.5703   3.6269   3.8117   3.9900   4.0742   4.0940   4.3226   4.5900
     4.7479   4.8316   5.0208   5.1733   5.4301   5.4499   5.5163   5.6314
     7.1827   7.4032   7.4509   7.5701   7.6100   7.6923   7.7409   7.7887
     7.8126   7.8760   7.9262   8.1179   8.1393   8.1909   8.1923   8.2893
     8.3589   8.3685   8.5225   8.5301   8.5888   8.7858   8.8403   8.9965

          k = 0.1250 0.0000 0.0250 ( 16990 PWs)   bands (ev):

    -9.0993  -9.0990  -9.0836  -9.0834  -9.0409  -9.0407  -9.0310  -9.0308
    -9.0260  -9.0258  -8.9945  -8.9942  -8.9905  -8.9902  -8.9679  -8.9676
    -8.9672  -8.9669  -8.9633  -8.9631  -8.9580  -8.9578  -8.9571  -8.9568
    -8.9497  -8.9491  -8.9450  -8.9448  -8.9444  -8.9441  -8.9384  -8.9375
    -8.9268  -8.9266  -8.9252  -8.9252  -8.9249  -8.9237  -8.9195  -8.9193
    -6.6206  -6.5623  -6.2830  -6.0412  -5.9197  -5.4762  -5.3121  -4.8244
    -4.6507  -4.5709  -4.5436  -4.5269  -4.4840  -4.4724  -4.4564  -4.4119
    -4.4104  -4.4099  -4.3593  -4.3567  -0.8570  -0.8516  -0.7272  -0.7246
    -0.4436  -0.1746   0.1268   0.2350   0.2358   0.2946   0.2967   0.3285
     0.4285   1.1385   1.4369   2.0933   2.1179   2.2505   2.3673   2.3941
     2.4040   2.5395   2.7396   2.8226   2.9045   2.9163   2.9775   3.0233
     3.0435   3.0624   3.0791   3.1145   3.1181   3.1420   3.1603   3.1695
     3.2494   3.2724   3.2892   3.2929   3.3301   3.3561   3.3919   3.5609
     3.7014   3.7566   3.8237   3.9786   4.1817   4.2168   4.3979   4.5835
     4.7621   4.9336   5.0972   5.2629   5.4412   5.5359   5.5495   5.6256
     7.1426   7.2926   7.3291   7.4477   7.5071   7.5856   7.6545   7.6853
     7.7603   7.8102   7.8479   7.9621   7.9970   8.0415   8.0979   8.1418
     8.2107   8.3483   8.3837   8.5124   8.5404   8.6561   8.8335   8.8615

          k = 0.0937 0.0000 0.0187 ( 17006 PWs)   bands (ev):

    -9.1001  -9.0999  -9.0841  -9.0839  -9.0414  -9.0412  -9.0315  -9.0312
    -9.0262  -9.0260  -8.9930  -8.9927  -8.9906  -8.9904  -8.9671  -8.9669
    -8.9668  -8.9666  -8.9627  -8.9626  -8.9572  -8.9572  -8.9566  -8.9563
    -8.9503  -8.9497  -8.9454  -8.9451  -8.9448  -8.9445  -8.9387  -8.9378
    -8.9266  -8.9264  -8.9251  -8.9250  -8.9248  -8.9236  -8.9192  -8.9189
    -6.6462  -6.5865  -6.3079  -6.0484  -5.9561  -5.4731  -5.3479  -4.8189
    -4.6710  -4.5192  -4.4926  -4.4816  -4.4609  -4.4368  -4.4326  -4.4108
    -4.3910  -4.3863  -4.3489  -4.3481  -0.8767  -0.8720  -0.7997  -0.7991
    -0.4550  -0.1629   0.1097   0.1712   0.2176   0.2517   0.2794   0.2982
     0.4204   1.2120   1.4481   2.1614   2.1909   2.2851   2.3651   2.5171
     2.5406   2.6258   2.7924   2.8072   2.8101   2.8331   2.8908   2.9528
     2.9704   3.0132   3.0848   3.1135   3.1424   3.1618   3.1964   3.2371
     3.2385   3.2663   3.2680   3.2791   3.2998   3.3265   3.4013   3.6630
     3.7701   3.8035   3.9168   3.9674   4.3120   4.3383   4.4570   4.5523
     4.6898   5.0168   5.2497   5.3423   5.4192   5.5575   5.6149   5.6325
     7.1102   7.1608   7.2352   7.2998   7.3978   7.5195   7.5263   7.6883
     7.7565   7.7790   7.8024   7.8480   7.8602   7.9240   8.0065   8.0437
     8.1083   8.2685   8.3319   8.4557   8.4668   8.5651   8.6967   8.7726

          k = 0.0625 0.0000 0.0125 ( 17035 PWs)   bands (ev):

    -9.1007  -9.1005  -9.0845  -9.0843  -9.0418  -9.0416  -9.0319  -9.0315
    -9.0264  -9.0261  -8.9919  -8.9916  -8.9909  -8.9906  -8.9667  -8.9665
    -8.9665  -8.9663  -8.9624  -8.9621  -8.9568  -8.9568  -8.9563  -8.9559
    -8.9508  -8.9502  -8.9455  -8.9453  -8.9451  -8.9448  -8.9389  -8.9380
    -8.9266  -8.9264  -8.9250  -8.9249  -8.9248  -8.9235  -8.9190  -8.9188
    -6.6645  -6.6039  -6.3258  -6.0492  -5.9866  -5.4651  -5.3795  -4.8128
    -4.6882  -4.4832  -4.4621  -4.4565  -4.4563  -4.4113  -4.4086  -4.4040
    -4.3727  -4.3657  -4.3365  -4.3354  -0.8911  -0.8872  -0.8556  -0.8542
    -0.4638  -0.1537   0.0970   0.1245   0.2050   0.2201   0.2688   0.2771
     0.4134   1.2782   1.4446   2.2429   2.2706   2.3257   2.3742   2.6413
     2.6587   2.6852   2.7204   2.7344   2.7776   2.8016   2.8495   2.8557
     2.9369   2.9771   3.0363   3.1391   3.1731   3.1861   3.1902   3.1986
     3.2190   3.2499   3.2506   3.2985   3.3272   3.3773   3.4106   3.7440
     3.8091   3.8175   3.8864   4.1035   4.4012   4.4619   4.4963   4.5358
     4.6111   5.0783   5.2508   5.4003   5.4920   5.5500   5.6557   5.6873
     7.0506   7.0843   7.1543   7.1558   7.2692   7.4304   7.5632   7.7029
     7.7034   7.7191   7.7595   7.7817   7.8399   7.8632   7.9086   8.0046
     8.0380   8.1906   8.3141   8.3734   8.4027   8.5073   8.6058   8.6800

          k = 0.0312 0.0000 0.0062 ( 17034 PWs)   bands (ev):

    -9.1011  -9.1009  -9.0848  -9.0845  -9.0420  -9.0418  -9.0322  -9.0318
    -9.0265  -9.0262  -8.9912  -8.9910  -8.9909  -8.9907  -8.9664  -8.9663
    -8.9662  -8.9661  -8.9621  -8.9617  -8.9565  -8.9564  -8.9561  -8.9557
    -8.9511  -8.9505  -8.9456  -8.9454  -8.9452  -8.9449  -8.9390  -8.9380
    -8.9265  -8.9263  -8.9250  -8.9249  -8.9247  -8.9235  -8.9189  -8.9187
    -6.6755  -6.6143  -6.3366  -6.0441  -6.0105  -5.4529  -5.4059  -4.8077
    -4.6999  -4.4622  -4.4544  -4.4477  -4.4441  -4.4115  -4.3935  -4.3865
    -4.3598  -4.3524  -4.3243  -4.3224  -0.8999  -0.8966  -0.8908  -0.8881
    -0.4693  -0.1478   0.0892   0.0961   0.1975   0.2013   0.2626   0.2646
     0.4087   1.3334   1.4280   2.3271   2.3432   2.3705   2.3915   2.6310
     2.6433   2.6648   2.6793   2.7495   2.7840   2.8272   2.8589   2.8626
     2.9230   2.9561   2.9973   3.0448   3.0682   3.2200   3.2221   3.2221
     3.2321   3.2400   3.2402   3.3361   3.3435   3.4095   3.4177   3.8003
     3.8172   3.8405   3.8577   4.2046   4.4626   4.4900   4.5131   4.5377
     4.6221   5.1161   5.1724   5.4373   5.4652   5.6668   5.6921   5.7245
     6.9497   7.0579   7.0623   7.1100   7.2012   7.3714   7.6002   7.6477
     7.6883   7.6987   7.7421   7.7428   7.7827   7.8580   7.9264   7.9865
     7.9945   8.1507   8.2803   8.2938   8.3640   8.4653   8.5668   8.6170

          k = 0.0000 0.0000 0.0000 ( 17017 PWs)   bands (ev):

    -9.1012  -9.1010  -9.0848  -9.0846  -9.0421  -9.0418  -9.0323  -9.0318
    -9.0265  -9.0262  -8.9910  -8.9909  -8.9906  -8.9905  -8.9663  -8.9662
    -8.9661  -8.9660  -8.9620  -8.9616  -8.9563  -8.9563  -8.9559  -8.9555
    -8.9514  -8.9507  -8.9455  -8.9453  -8.9452  -8.9449  -8.9390  -8.9380
    -8.9265  -8.9262  -8.9248  -8.9248  -8.9245  -8.9233  -8.9190  -8.9187
    -6.6792  -6.6178  -6.3402  -6.0374  -6.0236  -5.4428  -5.4208  -4.8056
    -4.7042  -4.4566  -4.4524  -4.4438  -4.4404  -4.4115  -4.3885  -4.3813
    -4.3553  -4.3479  -4.3187  -4.3169  -0.9030  -0.9028  -0.8997  -0.8995
    -0.4712  -0.1458   0.0865   0.0866   0.1949   0.1952   0.2605   0.2606
     0.4070   1.3630   1.4114   2.3691   2.3691   2.4072   2.4072   2.5960
     2.6115   2.6194   2.6279   2.7912   2.8571   2.8621   2.8621   2.9209
     2.9209   2.9295   2.9656   2.9718   3.0065   3.2302   3.2302   3.2362
     3.2368   3.2368   3.2370   3.3489   3.3490   3.4204   3.4205   3.8243
     3.8243   3.8435   3.8435   4.2423   4.4911   4.4911   4.5116   4.5116
     4.6725   5.1288   5.1288   5.4507   5.4507   5.6873   5.7380   5.7380
     6.9015   7.0300   7.0516   7.0975   7.1794   7.3514   7.6131   7.6286
     7.6787   7.6788   7.7303   7.7607   7.7627   7.8436   7.9456   7.9786
     7.9988   8.1392   8.2557   8.2558   8.3501   8.4486   8.5581   8.5925

     Writing all to output data dir ./outputs/gaalas_sl.save/

     init_run     :      9.04s CPU     10.25s WALL (       1 calls)
     electrons    :   8187.80s CPU   8442.77s WALL (       1 calls)

     Called by init_run:
     wfcinit      :      0.00s CPU      0.00s WALL (       1 calls)
     potinit      :      6.73s CPU      7.48s WALL (       1 calls)
     hinit0       :      1.40s CPU      1.62s WALL (       1 calls)

     Called by electrons:
     c_bands      :   8187.80s CPU   8442.70s WALL (       1 calls)
     v_of_rho     :      0.25s CPU      0.31s WALL (       1 calls)
     newd         :      0.77s CPU      0.94s WALL (       1 calls)
     PAW_pot      :      6.44s CPU      7.12s WALL (       1 calls)

     Called by c_bands:
     init_us_2    :      1.15s CPU      1.82s WALL (      98 calls)
     init_us_2:cp :      1.15s CPU      1.82s WALL (      98 calls)
     cegterg      :   7819.35s CPU   8184.60s WALL (     351 calls)

     Called by *egterg:
     cdiaghg      :    642.09s CPU    709.69s WALL (    6232 calls)
     h_psi        :   3485.44s CPU   3056.55s WALL (    6583 calls)
     s_psi        :   1028.08s CPU    929.38s WALL (    6583 calls)
     g_psi        :     29.87s CPU     14.29s WALL (    6134 calls)

     Called by h_psi:
     h_psi:calbec :   1053.23s CPU   1099.63s WALL (    6583 calls)
     vloc_psi     :   1382.53s CPU    889.49s WALL (    6583 calls)
     add_vuspsi   :   1036.85s CPU    996.26s WALL (    6583 calls)

     General routines
     calbec       :   1053.18s CPU   1099.61s WALL (    6583 calls)
     fft          :      0.71s CPU      0.78s WALL (      21 calls)
     fftw         :   1180.35s CPU    743.47s WALL (  622944 calls)
     davcio       :      0.65s CPU      6.39s WALL (     196 calls)

     Parallel routines

     PWSCF        :      2h16m CPU      2h21m WALL


   This run was terminated on:   1:56: 1   6Jan2025            

=------------------------------------------------------------------------------=
   JOB DONE.
=------------------------------------------------------------------------------=
