
     Program PWSCF v.7.0 starts on  5Jan2025 at 22:40:58 

     This program is part of the open-source Quantum ESPRESSO suite
     for quantum simulation of materials; please cite
         "P. Giannozzi et al., J. Phys.:Condens. Matter 21 395502 (2009);
         "P. Giannozzi et al., J. Phys.:Condens. Matter 29 465901 (2017);
         "P. Giannozzi et al., J. Chem. Phys. 152 154105 (2020);
          URL http://www.quantum-espresso.org", 
     in publications or presentations arising from this work. More details at
     http://www.quantum-espresso.org/quote

     Parallel version (MPI & OpenMP), running on       2 processor cores
     Number of MPI processes:                 2
     Threads/MPI process:                     1

     MPI processes distributed on     1 nodes
     R & G space division:  proc/nbgrp/npool/nimage =       2
     3740 MiB available memory on the printing compute node when the environment starts

     Reading input from pw.scf.n2.5Ao.in

     Current dimensions of program PWSCF are:
     Max number of different atomic species (ntypx) = 10
     Max number of k-points (npk) =  40000
     Max angular momentum in pseudopotentials (lmaxx) =  4
     file Al.pbe-n-kjpaw_psl.1.0.0.UPF: wavefunction(s)  3S 3P renormalized
     file Ga.pbe-dn-kjpaw_psl.1.0.0.UPF: wavefunction(s)  4S renormalized

     IMPORTANT: XC functional enforced from input :
     Exchange-correlation= PBE
                           (   1   4   3   4   0   0   0)
     Any further DFT definition will be discarded
     Please, verify this is what you really want

     Found identity + ( -0.5000 -0.5000  0.0000) symmetry
     This is a supercell, fractional translations are disabled
     Message from routine setup:
     using ibrav=0 with symmetry is DISCOURAGED, use correct ibrav instead

     Subspace diagonalization in iterative solution of the eigenvalue problem:
     a serial algorithm will be used


     Parallelization info
     --------------------
     sticks:   dense  smooth     PW     G-vecs:    dense   smooth      PW
     Min         546     546    146                67962    67962    9812
     Max         547     547    147                67965    67965    9835
     Sum        1093    1093    293               135927   135927   19647

     Using Slab Decomposition



     bravais-lattice index     =            0
     lattice parameter (alat)  =      10.6974  a.u.
     unit-cell volume          =    6120.6851 (a.u.)^3
     number of atoms/cell      =           40
     number of atomic types    =            3
     number of electrons       =       240.00
     number of Kohn-Sham states=          144
     kinetic-energy cutoff     =      30.0000  Ry
     charge density cutoff     =     120.0000  Ry
     scf convergence threshold =      1.0E-07
     mixing beta               =       0.3000
     number of iterations used =            8  plain     mixing
     Exchange-correlation= PBE
                           (   1   4   3   4   0   0   0)

     celldm(1)=  10.697362  celldm(2)=   0.000000  celldm(3)=   0.000000
     celldm(4)=   0.000000  celldm(5)=   0.000000  celldm(6)=   0.000000

     crystal axes: (cart. coord. in units of alat)
               a(1) = (   1.000000   0.000000   0.000000 )  
               a(2) = (   0.000000   1.000000   0.000000 )  
               a(3) = (   0.000000   0.000000   5.000000 )  

     reciprocal axes: (cart. coord. in units 2 pi/alat)
               b(1) = (  1.000000  0.000000  0.000000 )  
               b(2) = (  0.000000  1.000000  0.000000 )  
               b(3) = (  0.000000  0.000000  0.200000 )  


     PseudoPot. # 1 for Al read from file:
     ../../Chapter11/Pseudopotentials/Al.pbe-n-kjpaw_psl.1.0.0.UPF
     MD5 check sum: 502b6b27b9c6270cab5dd1084b96fa6d
     Pseudo is Projector augmented-wave + core cor, Zval =  3.0
     Generated using &quot;atomic&quot; code by A. Dal Corso  v.6.3
     Shape of augmentation charge: PSQ
     Using radial grid of 1135 points,  6 beta functions with: 
                l(1) =   0
                l(2) =   0
                l(3) =   1
                l(4) =   1
                l(5) =   2
                l(6) =   2
     Q(r) pseudized with 0 coefficients 


     PseudoPot. # 2 for As read from file:
     ../../Chapter11/Pseudopotentials/As.pbe-n-kjpaw_psl.1.0.0.UPF
     MD5 check sum: 21b474db91924651be503153fb2dbf55
     Pseudo is Projector augmented-wave + core cor, Zval =  5.0
     Generated using &quot;atomic&quot; code by A. Dal Corso  v.6.3
     Shape of augmentation charge: PSQ
     Using radial grid of 1209 points,  4 beta functions with: 
                l(1) =   0
                l(2) =   0
                l(3) =   1
                l(4) =   1
     Q(r) pseudized with 0 coefficients 


     PseudoPot. # 3 for Ga read from file:
     ../../Chapter11/Pseudopotentials/Ga.pbe-dn-kjpaw_psl.1.0.0.UPF
     MD5 check sum: 50ce49cbf7e0a40ad8623bf41840a268
     Pseudo is Projector augmented-wave + core cor, Zval = 13.0
     Generated using &quot;atomic&quot; code by A. Dal Corso  v.6.3
     Shape of augmentation charge: PSQ
     Using radial grid of 1205 points,  6 beta functions with: 
                l(1) =   0
                l(2) =   0
                l(3) =   1
                l(4) =   1
                l(5) =   2
                l(6) =   2
     Q(r) pseudized with 0 coefficients 


     atomic species   valence    mass     pseudopotential
        Al             3.00    26.98100     Al( 1.00)
        As             5.00    74.92100     As( 1.00)
        Ga            13.00    69.72300     Ga( 1.00)

     Starting magnetic structure 
     atomic species   magnetization
        Al           1.000
        As           1.000
        Ga           1.000

      4 Sym. Ops. (no inversion) found



   Cartesian axes

     site n.     atom                  positions (alat units)
         1           As  tau(   1) = (   0.2500000   0.2500000   0.2500000  )
         2           As  tau(   2) = (   0.7500000   0.2500000   0.7500000  )
         3           As  tau(   3) = (   0.7500000   0.7500000   0.2500000  )
         4           As  tau(   4) = (   0.2500000   0.7500000   0.7500000  )
         5           As  tau(   5) = (   0.2500000   0.2500000   4.2500000  )
         6           As  tau(   6) = (   0.2500000   0.2500000   2.2500000  )
         7           As  tau(   7) = (   0.2500000   0.2500000   1.2500000  )
         8           As  tau(   8) = (   0.2500000   0.2500000   3.2500000  )
         9           As  tau(   9) = (   0.7500000   0.2500000   4.7500000  )
        10           As  tau(  10) = (   0.7500000   0.2500000   2.7500000  )
        11           As  tau(  11) = (   0.7500000   0.2500000   1.7500000  )
        12           As  tau(  12) = (   0.7500000   0.2500000   3.7500000  )
        13           As  tau(  13) = (   0.7500000   0.7500000   4.2500000  )
        14           As  tau(  14) = (   0.7500000   0.7500000   2.2500000  )
        15           As  tau(  15) = (   0.7500000   0.7500000   1.2500000  )
        16           As  tau(  16) = (   0.7500000   0.7500000   3.2500000  )
        17           As  tau(  17) = (   0.2500000   0.7500000   4.7500000  )
        18           As  tau(  18) = (   0.2500000   0.7500000   2.7500000  )
        19           As  tau(  19) = (   0.2500000   0.7500000   1.7500000  )
        20           As  tau(  20) = (   0.2500000   0.7500000   3.7500000  )
        21           Al  tau(  21) = (   0.0000000   0.0000000   0.0000000  )
        22           Al  tau(  22) = (   0.5000000   0.5000000   0.0000000  )
        23           Al  tau(  23) = (   0.5000000   0.0000000   0.5000000  )
        24           Al  tau(  24) = (   0.0000000   0.5000000   0.5000000  )
        25           Ga  tau(  25) = (   0.0000000   0.0000000   1.0000000  )
        26           Ga  tau(  26) = (   0.5000000   0.5000000   1.0000000  )
        27           Ga  tau(  27) = (   0.5000000   0.0000000   1.5000000  )
        28           Ga  tau(  28) = (   0.0000000   0.5000000   1.5000000  )
        29           Al  tau(  29) = (   0.0000000   0.0000000   2.0000000  )
        30           Al  tau(  30) = (   0.5000000   0.5000000   2.0000000  )
        31           Al  tau(  31) = (   0.5000000   0.0000000   2.5000000  )
        32           Al  tau(  32) = (   0.0000000   0.5000000   2.5000000  )
        33           Ga  tau(  33) = (   0.0000000   0.0000000   3.0000000  )
        34           Ga  tau(  34) = (   0.5000000   0.5000000   3.0000000  )
        35           Ga  tau(  35) = (   0.5000000   0.0000000   3.5000000  )
        36           Ga  tau(  36) = (   0.0000000   0.5000000   3.5000000  )
        37           Al  tau(  37) = (   0.0000000   0.0000000   4.0000000  )
        38           Al  tau(  38) = (   0.5000000   0.5000000   4.0000000  )
        39           Al  tau(  39) = (   0.5000000   0.0000000   4.5000000  )
        40           Al  tau(  40) = (   0.0000000   0.5000000   4.5000000  )

     number of k points=     8  Marzari-Vanderbilt smearing, width (Ry)=  0.0050
                       cart. coord. in units 2pi/alat
        k(    1) = (   0.0000000   0.0000000   0.0000000), wk =   0.0370370
        k(    2) = (   0.0000000   0.0000000   0.0666667), wk =   0.0740741
        k(    3) = (   0.0000000   0.3333333   0.0000000), wk =   0.1481481
        k(    4) = (   0.0000000   0.3333333   0.0666667), wk =   0.2962963
        k(    5) = (   0.3333333   0.3333333   0.0000000), wk =   0.0740741
        k(    6) = (   0.3333333   0.3333333   0.0666667), wk =   0.1481481
        k(    7) = (   0.3333333  -0.3333333   0.0000000), wk =   0.0740741
        k(    8) = (   0.3333333  -0.3333333   0.0666667), wk =   0.1481481

     Dense  grid:   135927 G-vectors     FFT dimensions: (  40,  40, 192)

     Estimated max dynamical RAM per process >     711.02 MB

     Estimated total dynamical RAM >       1.39 GB

     Check: negative core charge=   -0.000007
     Generating pointlists ...
     new r_m :   0.1786 (alat units)  1.9107 (a.u.) for type    1
     new r_m :   0.1786 (alat units)  1.9107 (a.u.) for type    2
     new r_m :   0.1786 (alat units)  1.9107 (a.u.) for type    3

     Initial potential from superposition of free atoms

     starting charge     239.9442, renormalised to     240.0000
     Starting wfcs are  200 randomized atomic wfcs
     Checking if some PAW data can be deallocated... 

     total cpu time spent up to now is       74.8 secs

     per-process dynamical memory:   446.9 Mb

     Self-consistent Calculation

     iteration #  1     ecut=    30.00 Ry     beta= 0.30
     Davidson diagonalization with overlap
     ethr =  1.00E-02,  avg # of iterations =  3.0

     total cpu time spent up to now is      215.7 secs

     total energy              =   -6202.28906334 Ry
     estimated scf accuracy    <      55.12776040 Ry

     total magnetization       =    18.23 Bohr mag/cell
     absolute magnetization    =    18.36 Bohr mag/cell

     iteration #  2     ecut=    30.00 Ry     beta= 0.30
     Davidson diagonalization with overlap
     ethr =  1.00E-02,  avg # of iterations =  1.6

     total cpu time spent up to now is      297.1 secs

     total energy              =   -6195.77659473 Ry
     estimated scf accuracy    <     101.07306999 Ry

     total magnetization       =    20.96 Bohr mag/cell
     absolute magnetization    =    20.97 Bohr mag/cell

     iteration #  3     ecut=    30.00 Ry     beta= 0.30
     Davidson diagonalization with overlap
     ethr =  1.00E-02,  avg # of iterations =  5.4

     total cpu time spent up to now is      512.9 secs

     total energy              =   -6194.28678658 Ry
     estimated scf accuracy    <    1162.15310633 Ry

     total magnetization       =    24.02 Bohr mag/cell
     absolute magnetization    =    24.02 Bohr mag/cell

     iteration #  4     ecut=    30.00 Ry     beta= 0.30
     Davidson diagonalization with overlap
     ethr =  1.00E-02,  avg # of iterations =  6.7

     total cpu time spent up to now is      786.3 secs

     total energy              =   -6207.81434930 Ry
     estimated scf accuracy    <     193.30174372 Ry

     total magnetization       =    12.46 Bohr mag/cell
     absolute magnetization    =    12.46 Bohr mag/cell

     iteration #  5     ecut=    30.00 Ry     beta= 0.30
     Davidson diagonalization with overlap
     ethr =  1.00E-02,  avg # of iterations =  3.6

     total cpu time spent up to now is      932.2 secs

     total energy              =   -6217.94228964 Ry
     estimated scf accuracy    <       1.34953419 Ry

     total magnetization       =     0.30 Bohr mag/cell
     absolute magnetization    =     1.27 Bohr mag/cell

     iteration #  6     ecut=    30.00 Ry     beta= 0.30
     Davidson diagonalization with overlap
     ethr =  5.62E-04,  avg # of iterations =  6.3

     total cpu time spent up to now is     1083.9 secs

     WARNING: integrated charge=   240.00004174, expected=   240.00000000

     total energy              =   -6218.10227145 Ry
     estimated scf accuracy    <       0.52751569 Ry

     total magnetization       =     0.00 Bohr mag/cell
     absolute magnetization    =     0.86 Bohr mag/cell

     iteration #  7     ecut=    30.00 Ry     beta= 0.30
     Davidson diagonalization with overlap
     ethr =  2.20E-04,  avg # of iterations =  7.9

     total cpu time spent up to now is     1215.1 secs

     WARNING: integrated charge=   240.00003383, expected=   240.00000000

     total energy              =   -6218.14926332 Ry
     estimated scf accuracy    <       0.26958807 Ry

     total magnetization       =    -0.00 Bohr mag/cell
     absolute magnetization    =     0.77 Bohr mag/cell

     iteration #  8     ecut=    30.00 Ry     beta= 0.30
     Davidson diagonalization with overlap
     ethr =  1.12E-04,  avg # of iterations =  2.4

     total cpu time spent up to now is     1355.7 secs

     total energy              =   -6218.17681217 Ry
     estimated scf accuracy    <       0.14057972 Ry

     total magnetization       =     0.00 Bohr mag/cell
     absolute magnetization    =     0.63 Bohr mag/cell

     iteration #  9     ecut=    30.00 Ry     beta= 0.30
     Davidson diagonalization with overlap
     ethr =  5.86E-05,  avg # of iterations =  5.9

     total cpu time spent up to now is     1493.5 secs

     total energy              =   -6218.19246895 Ry
     estimated scf accuracy    <       0.04064881 Ry

     total magnetization       =    -0.00 Bohr mag/cell
     absolute magnetization    =     0.39 Bohr mag/cell

     iteration # 10     ecut=    30.00 Ry     beta= 0.30
     Davidson diagonalization with overlap
     ethr =  1.69E-05,  avg # of iterations =  6.1

     total cpu time spent up to now is     1626.8 secs

     total energy              =   -6218.19852254 Ry
     estimated scf accuracy    <       0.02311750 Ry

     total magnetization       =     0.00 Bohr mag/cell
     absolute magnetization    =     0.29 Bohr mag/cell

     iteration # 11     ecut=    30.00 Ry     beta= 0.30
     Davidson diagonalization with overlap
     c_bands:  1 eigenvalues not converged
     ethr =  9.63E-06,  avg # of iterations =  9.6

     total cpu time spent up to now is     1772.9 secs

     total energy              =   -6218.19915318 Ry
     estimated scf accuracy    <       0.00949509 Ry

     total magnetization       =    -0.00 Bohr mag/cell
     absolute magnetization    =     0.14 Bohr mag/cell

     iteration # 12     ecut=    30.00 Ry     beta= 0.30
     Davidson diagonalization with overlap
     ethr =  3.96E-06,  avg # of iterations =  5.6

     total cpu time spent up to now is     1921.6 secs

     total energy              =   -6218.19800502 Ry
     estimated scf accuracy    <       0.00611960 Ry

     total magnetization       =    -0.00 Bohr mag/cell
     absolute magnetization    =     0.09 Bohr mag/cell

     iteration # 13     ecut=    30.00 Ry     beta= 0.30
     Davidson diagonalization with overlap
     ethr =  2.55E-06,  avg # of iterations =  8.3

     total cpu time spent up to now is     2055.9 secs

     total energy              =   -6218.19874778 Ry
     estimated scf accuracy    <       0.00039293 Ry

     total magnetization       =     0.00 Bohr mag/cell
     absolute magnetization    =     0.03 Bohr mag/cell

     iteration # 14     ecut=    30.00 Ry     beta= 0.30
     Davidson diagonalization with overlap
     ethr =  1.64E-07,  avg # of iterations =  2.8

     total cpu time spent up to now is     2189.6 secs

     total energy              =   -6218.19882188 Ry
     estimated scf accuracy    <       0.00007431 Ry

     total magnetization       =     0.00 Bohr mag/cell
     absolute magnetization    =     0.01 Bohr mag/cell

     iteration # 15     ecut=    30.00 Ry     beta= 0.30
     Davidson diagonalization with overlap
     ethr =  3.10E-08,  avg # of iterations =  2.1

     total cpu time spent up to now is     2340.2 secs

     total energy              =   -6218.19883038 Ry
     estimated scf accuracy    <       0.00001692 Ry

     total magnetization       =    -0.00 Bohr mag/cell
     absolute magnetization    =     0.01 Bohr mag/cell

     iteration # 16     ecut=    30.00 Ry     beta= 0.30
     Davidson diagonalization with overlap
     ethr =  7.05E-09,  avg # of iterations =  2.4

     total cpu time spent up to now is     2470.6 secs

     total energy              =   -6218.19883199 Ry
     estimated scf accuracy    <       0.00000317 Ry

     total magnetization       =     0.00 Bohr mag/cell
     absolute magnetization    =     0.01 Bohr mag/cell

     iteration # 17     ecut=    30.00 Ry     beta= 0.30
     Davidson diagonalization with overlap
     ethr =  1.32E-09,  avg # of iterations =  2.9

     total cpu time spent up to now is     2612.7 secs

     total energy              =   -6218.19883245 Ry
     estimated scf accuracy    <       0.00000164 Ry

     total magnetization       =    -0.00 Bohr mag/cell
     absolute magnetization    =     0.00 Bohr mag/cell

     iteration # 18     ecut=    30.00 Ry     beta= 0.30
     Davidson diagonalization with overlap
     ethr =  6.85E-10,  avg # of iterations =  2.0

     total cpu time spent up to now is     2753.8 secs

     total energy              =   -6218.19883266 Ry
     estimated scf accuracy    <       0.00000052 Ry

     total magnetization       =    -0.00 Bohr mag/cell
     absolute magnetization    =     0.00 Bohr mag/cell

     iteration # 19     ecut=    30.00 Ry     beta= 0.30
     Davidson diagonalization with overlap
     ethr =  2.19E-10,  avg # of iterations =  2.1

     total cpu time spent up to now is     2832.0 secs

     total energy              =   -6218.19883278 Ry
     estimated scf accuracy    <       0.00000010 Ry

     total magnetization       =     0.00 Bohr mag/cell
     absolute magnetization    =     0.00 Bohr mag/cell

     iteration # 20     ecut=    30.00 Ry     beta= 0.30
     Davidson diagonalization with overlap
     ethr =  4.36E-11,  avg # of iterations =  3.0

     Magnetic moment per site  (integrated on atomic sphere of radius R)
     atom   1 (R=0.179)  charge=  2.7984  magn=  0.0000
     atom   2 (R=0.179)  charge=  2.7701  magn=  0.0000
     atom   3 (R=0.179)  charge=  2.7984  magn=  0.0000
     atom   4 (R=0.179)  charge=  2.7701  magn=  0.0000
     atom   5 (R=0.179)  charge=  2.7983  magn=  0.0000
     atom   6 (R=0.179)  charge=  2.7982  magn= -0.0000
     atom   7 (R=0.179)  charge=  2.7410  magn=  0.0000
     atom   8 (R=0.179)  charge=  2.7409  magn=  0.0000
     atom   9 (R=0.179)  charge=  2.7984  magn=  0.0000
     atom  10 (R=0.179)  charge=  2.7701  magn= -0.0000
     atom  11 (R=0.179)  charge=  2.7701  magn= -0.0000
     atom  12 (R=0.179)  charge=  2.7702  magn=  0.0000
     atom  13 (R=0.179)  charge=  2.7983  magn=  0.0000
     atom  14 (R=0.179)  charge=  2.7982  magn= -0.0000
     atom  15 (R=0.179)  charge=  2.7410  magn=  0.0000
     atom  16 (R=0.179)  charge=  2.7409  magn=  0.0000
     atom  17 (R=0.179)  charge=  2.7984  magn=  0.0000
     atom  18 (R=0.179)  charge=  2.7701  magn= -0.0000
     atom  19 (R=0.179)  charge=  2.7701  magn= -0.0000
     atom  20 (R=0.179)  charge=  2.7702  magn=  0.0000
     atom  21 (R=0.179)  charge=  1.0729  magn= -0.0000
     atom  22 (R=0.179)  charge=  1.0729  magn= -0.0000
     atom  23 (R=0.179)  charge=  1.0768  magn= -0.0000
     atom  24 (R=0.179)  charge=  1.0768  magn= -0.0000
     atom  25 (R=0.179)  charge= 11.0515  magn= -0.0000
     atom  26 (R=0.179)  charge= 11.0515  magn= -0.0000
     atom  27 (R=0.179)  charge= 11.0515  magn= -0.0000
     atom  28 (R=0.179)  charge= 11.0515  magn= -0.0000
     atom  29 (R=0.179)  charge=  1.0768  magn=  0.0000
     atom  30 (R=0.179)  charge=  1.0768  magn=  0.0000
     atom  31 (R=0.179)  charge=  1.0771  magn=  0.0000
     atom  32 (R=0.179)  charge=  1.0771  magn=  0.0000
     atom  33 (R=0.179)  charge= 11.0516  magn= -0.0000
     atom  34 (R=0.179)  charge= 11.0516  magn= -0.0000
     atom  35 (R=0.179)  charge= 11.0515  magn= -0.0000
     atom  36 (R=0.179)  charge= 11.0515  magn= -0.0000
     atom  37 (R=0.179)  charge=  1.0765  magn= -0.0000
     atom  38 (R=0.179)  charge=  1.0765  magn= -0.0000
     atom  39 (R=0.179)  charge=  1.0726  magn= -0.0000
     atom  40 (R=0.179)  charge=  1.0726  magn= -0.0000

     total cpu time spent up to now is     3038.3 secs

     End of self-consistent calculation

 ------ SPIN UP ------------


          k = 0.0000 0.0000 0.0000 ( 17017 PWs)   bands (ev):

    -9.1012  -9.1008  -9.0847  -9.0846  -9.0421  -9.0417  -9.0322  -9.0317
    -9.0265  -9.0261  -8.9910  -8.9908  -8.9906  -8.9904  -8.9663  -8.9662
    -8.9659  -8.9659  -8.9620  -8.9615  -8.9564  -8.9563  -8.9556  -8.9555
    -8.9512  -8.9507  -8.9455  -8.9453  -8.9449  -8.9448  -8.9388  -8.9380
    -8.9264  -8.9262  -8.9249  -8.9248  -8.9241  -8.9232  -8.9187  -8.9187
    -6.6791  -6.6178  -6.3404  -6.0372  -6.0238  -5.4429  -5.4207  -4.8056
    -4.7043  -4.4573  -4.4529  -4.4428  -4.4411  -4.4115  -4.3883  -4.3814
    -4.3554  -4.3476  -4.3187  -4.3169  -0.9029  -0.9029  -0.8995  -0.8994
    -0.4710  -0.1458   0.0861   0.0861   0.1959   0.1959   0.2601   0.2601
     0.4069   1.3631   1.4114   2.3687   2.3687   2.4075   2.4075   2.5962
     2.6118   2.6191   2.6276   2.7911   2.8573   2.8620   2.8620   2.9210
     2.9210   2.9293   2.9656   2.9717   3.0067   3.2302   3.2302   3.2362
     3.2367   3.2367   3.2370   3.3488   3.3489   3.4204   3.4204   3.8244
     3.8244   3.8434   3.8434   4.2422   4.4910   4.4910   4.5116   4.5116
     4.6725   5.1286   5.1286   5.4507   5.4507   5.6873   5.7381   5.7381
     6.9015   7.0297   7.0514   7.0974   7.1799   7.3511   7.6134   7.6285
     7.6787   7.6788   7.7307   7.7606   7.7628   7.8437   7.9455   7.9785
     7.9985   8.1392   8.2558   8.2558   8.3500   8.4486   8.5580   8.5924

          k = 0.0000 0.0000 0.0667 ( 17041 PWs)   bands (ev):

    -9.1013  -9.1009  -9.0848  -9.0845  -9.0422  -9.0418  -9.0322  -9.0318
    -9.0265  -9.0261  -8.9913  -8.9911  -8.9907  -8.9905  -8.9663  -8.9662
    -8.9658  -8.9657  -8.9619  -8.9615  -8.9565  -8.9565  -8.9556  -8.9556
    -8.9510  -8.9505  -8.9456  -8.9454  -8.9449  -8.9449  -8.9389  -8.9383
    -8.9265  -8.9264  -8.9250  -8.9249  -8.9242  -8.9233  -8.9187  -8.9184
    -6.6735  -6.6281  -6.3019  -6.1746  -5.8533  -5.6484  -5.2110  -4.9662
    -4.5741  -4.4572  -4.4529  -4.4524  -4.4435  -4.4404  -4.3889  -4.3807
    -4.3562  -4.3471  -4.3195  -4.3168  -0.9029  -0.9028  -0.8996  -0.8996
    -0.4308  -0.2344   0.0867   0.0867   0.1939   0.1940   0.2615   0.2615
     0.5647   0.9833   1.8424   2.3149   2.3150   2.3281   2.5168   2.5168
     2.5624   2.5733   2.6867   2.7058   2.7058   2.7066   2.8323   2.8343
     3.0666   3.0666   3.1013   3.1034   3.1912   3.1912   3.2001   3.2006
     3.2458   3.2458   3.2963   3.2964   3.3073   3.5014   3.5015   3.6640
     3.6640   3.9139   4.0349   4.0349   4.2610   4.2610   4.7422   4.7422
     5.0029   5.0029   5.0053   5.4739   5.5359   5.5359   5.6999   5.6999
     6.9936   7.1030   7.1216   7.1726   7.2047   7.3684   7.4058   7.4712
     7.5588   7.6594   7.7024   7.7618   7.7618   7.8233   7.9673   8.0112
     8.0112   8.1816   8.2619   8.2661   8.3531   8.4814   8.6453   8.8891

          k = 0.0000 0.3333 0.0000 ( 17002 PWs)   bands (ev):

    -9.0887  -9.0884  -9.0789  -9.0787  -9.0341  -9.0338  -9.0258  -9.0257
    -9.0241  -9.0238  -9.0110  -9.0106  -8.9861  -8.9859  -8.9743  -8.9740
    -8.9702  -8.9698  -8.9695  -8.9694  -8.9682  -8.9679  -8.9656  -8.9655
    -8.9433  -8.9429  -8.9413  -8.9410  -8.9394  -8.9391  -8.9360  -8.9354
    -8.9288  -8.9286  -8.9283  -8.9280  -8.9269  -8.9263  -8.9236  -8.9234
    -6.2784  -6.2194  -5.9852  -5.7088  -5.6946  -5.2252  -5.1923  -5.1788
    -5.1720  -5.0810  -4.9093  -4.8980  -4.6840  -4.6586  -4.6499  -4.5813
    -4.4935  -4.4057  -4.3762  -4.3656  -0.6327  -0.6306  -0.3776  -0.2650
    -0.0699  -0.0553   0.3130   0.3777   0.5264   0.5317   0.8261   0.8292
     0.8293   0.9563   1.0602   1.6589   1.7065   1.9627   1.9652   1.9877
     2.0306   2.4598   2.4651   2.4986   2.5130   2.5229   2.5281   2.6053
     2.7056   2.7110   2.7680   2.8697   2.8837   3.1619   3.1990   3.2180
     3.2456   3.3368   3.4867   3.5251   3.5265   3.5556   3.6525   3.6547
     3.7019   3.7047   3.8898   3.8901   4.0007   4.0066   4.1606   4.1633
     4.2479   4.4053   4.7484   4.7853   5.0888   5.0907   5.2067   5.2333
     7.4780   8.0197   8.1677   8.1832   8.2179   8.2642   8.3988   8.4350
     8.5002   8.5619   8.7414   8.8469   8.9247   8.9365   8.9819   9.0327
     9.0917   9.1085   9.1236   9.3193   9.3862   9.3961   9.4026   9.5272

          k = 0.0000 0.3333 0.0667 ( 17008 PWs)   bands (ev):

    -9.0888  -9.0885  -9.0788  -9.0787  -9.0341  -9.0338  -9.0258  -9.0257
    -9.0242  -9.0238  -9.0110  -9.0106  -8.9861  -8.9859  -8.9743  -8.9740
    -8.9702  -8.9698  -8.9696  -8.9694  -8.9682  -8.9680  -8.9656  -8.9655
    -8.9433  -8.9429  -8.9412  -8.9411  -8.9394  -8.9391  -8.9359  -8.9352
    -8.9287  -8.9287  -8.9282  -8.9279  -8.9269  -8.9263  -8.9236  -8.9234
    -6.2728  -6.2302  -5.9495  -5.8308  -5.5445  -5.3671  -5.2199  -5.1913
    -5.0557  -4.9994  -4.9765  -4.8205  -4.7999  -4.7354  -4.5837  -4.5175
    -4.4944  -4.4038  -4.3965  -4.3693  -0.6329  -0.6303  -0.3683  -0.2792
    -0.0696  -0.0559   0.3166   0.4350   0.4833   0.5804   0.6173   0.8067
     0.9717   1.0548   1.0777   1.3864   1.9025   1.9323   1.9857   2.0846
     2.1517   2.2540   2.3498   2.3640   2.4865   2.4980   2.5836   2.7008
     2.7084   2.7843   2.9234   2.9556   2.9593   2.9675   3.0970   3.2132
     3.2196   3.3409   3.4334   3.4952   3.5948   3.6562   3.6731   3.7465
     3.7497   3.7820   3.8202   3.8234   3.9211   3.9631   4.0082   4.0558
     4.4972   4.5635   4.7288   4.7615   4.9162   5.0436   5.2623   5.2953
     7.5690   7.8334   7.9836   8.0701   8.3797   8.4462   8.4857   8.5071
     8.5817   8.6884   8.7471   8.7960   8.8746   8.8864   8.9146   9.0039
     9.0597   9.0840   9.1337   9.2427   9.2971   9.3120   9.5083   9.5303

          k = 0.3333 0.3333 0.0000 ( 16953 PWs)   bands (ev):

    -9.0815  -9.0811  -9.0760  -9.0758  -9.0407  -9.0396  -9.0341  -9.0327
    -9.0160  -9.0144  -9.0135  -9.0124  -8.9849  -8.9846  -8.9804  -8.9798
    -8.9764  -8.9764  -8.9753  -8.9748  -8.9739  -8.9738  -8.9729  -8.9727
    -8.9376  -8.9367  -8.9367  -8.9360  -8.9343  -8.9341  -8.9322  -8.9319
    -8.9298  -8.9288  -8.9287  -8.9285  -8.9269  -8.9261  -8.9260  -8.9251
    -5.9180  -5.8676  -5.6737  -5.4487  -5.4360  -5.0663  -5.0572  -5.0512
    -5.0473  -5.0166  -5.0047  -4.9389  -4.9304  -4.9039  -4.9014  -4.8415
    -4.8371  -4.7461  -4.6548  -4.5602  -0.5093  -0.4699  -0.4590  -0.4522
    -0.4250  -0.4120   0.0381   0.0389   0.2334   0.2421   0.2878   0.4301
     0.4610   0.5491   0.6074   0.6444   0.6678   1.3063   1.4876   1.9126
     2.0288   2.4826   2.5475   2.6825   2.6852   2.9188   2.9643   3.0735
     3.1136   3.3948   3.4060   3.4140   3.4243   3.6940   3.7367   3.8033
     3.8076   3.8207   3.9151   3.9624   3.9865   4.0103   4.0104   4.0178
     4.0441   4.2819   4.2896   4.3087   4.3163   4.3280   4.3377   4.4298
     4.5202   4.7276   4.7342   4.8052   4.8113   5.0031   5.2142   5.2893
     7.4318   7.4497   7.8450   8.0432   8.1289   8.2470   8.2699   8.2719
     8.2872   8.2954   8.3073   8.3915   8.4211   8.5763   8.5767   8.7477
     8.7624   8.9401   9.2923   9.3485   9.7443   9.7987  10.0333  10.0573

          k = 0.3333 0.3333 0.0667 ( 16938 PWs)   bands (ev):

    -9.0815  -9.0810  -9.0759  -9.0759  -9.0406  -9.0395  -9.0341  -9.0326
    -9.0160  -9.0145  -9.0135  -9.0124  -8.9848  -8.9847  -8.9803  -8.9797
    -8.9764  -8.9764  -8.9753  -8.9749  -8.9739  -8.9738  -8.9729  -8.9726
    -8.9375  -8.9367  -8.9367  -8.9360  -8.9343  -8.9341  -8.9320  -8.9317
    -8.9298  -8.9288  -8.9287  -8.9285  -8.9269  -8.9261  -8.9260  -8.9251
    -5.9130  -5.8771  -5.6446  -5.5446  -5.3207  -5.1877  -5.0569  -5.0516
    -5.0153  -5.0065  -4.9379  -4.9361  -4.9303  -4.9108  -4.8967  -4.8423
    -4.8360  -4.8013  -4.6189  -4.5726  -0.5104  -0.4770  -0.4666  -0.4513
    -0.4157  -0.4020   0.0098   0.0833   0.2109   0.2226   0.2876   0.4288
     0.4746   0.5031   0.6190   0.6421   0.7850   1.1100   1.6932   1.9354
     1.9897   2.2028   2.7245   2.7313   2.8409   2.8557   2.8901   3.1741
     3.1741   3.3060   3.3160   3.3543   3.4473   3.4601   3.8271   3.8410
     3.8741   3.8927   3.9029   3.9265   3.9663   4.0779   4.1025   4.1082
     4.1101   4.2188   4.2207   4.2260   4.2371   4.3354   4.3437   4.4607
     4.5392   4.5983   4.7525   4.8522   4.8876   4.9615   5.2290   5.2823
     7.3422   7.5915   7.7967   7.9677   8.1302   8.2137   8.2211   8.2575
     8.3158   8.3326   8.3534   8.4349   8.5280   8.5467   8.5518   8.8098
     8.8703   8.8959   9.1200   9.1635   9.8284   9.9280  10.0360  10.0507

          k = 0.3333-0.3333 0.0000 ( 16953 PWs)   bands (ev):

    -9.0814  -9.0814  -9.0759  -9.0757  -9.0408  -9.0390  -9.0340  -9.0332
    -9.0159  -9.0146  -9.0135  -9.0124  -8.9850  -8.9845  -8.9802  -8.9798
    -8.9764  -8.9763  -8.9752  -8.9751  -8.9741  -8.9734  -8.9731  -8.9725
    -8.9373  -8.9371  -8.9365  -8.9360  -8.9345  -8.9340  -8.9325  -8.9314
    -8.9298  -8.9288  -8.9288  -8.9277  -8.9269  -8.9268  -8.9260  -8.9252
    -5.9180  -5.8676  -5.6737  -5.4487  -5.4360  -5.0663  -5.0572  -5.0512
    -5.0473  -5.0166  -5.0047  -4.9389  -4.9304  -4.9039  -4.9014  -4.8414
    -4.8370  -4.7461  -4.6548  -4.5602  -0.5093  -0.4699  -0.4590  -0.4522
    -0.4250  -0.4121   0.0381   0.0389   0.2334   0.2421   0.2878   0.4301
     0.4610   0.5491   0.6074   0.6444   0.6678   1.3063   1.4876   1.9126
     2.0289   2.4826   2.5476   2.6825   2.6852   2.9188   2.9643   3.0735
     3.1136   3.3948   3.4060   3.4141   3.4243   3.6940   3.7367   3.8033
     3.8076   3.8207   3.9151   3.9624   3.9865   4.0102   4.0104   4.0178
     4.0441   4.2819   4.2895   4.3086   4.3163   4.3280   4.3377   4.4298
     4.5203   4.7276   4.7342   4.8052   4.8113   5.0031   5.2141   5.2893
     7.4318   7.4497   7.8451   8.0432   8.1289   8.2471   8.2699   8.2720
     8.2872   8.2954   8.3073   8.3915   8.4211   8.5763   8.5767   8.7477
     8.7624   8.9400   9.2923   9.3484   9.7442   9.7987  10.0333  10.0572

          k = 0.3333-0.3333 0.0667 ( 16938 PWs)   bands (ev):

    -9.0814  -9.0814  -9.0759  -9.0757  -9.0407  -9.0389  -9.0340  -9.0331
    -9.0160  -9.0147  -9.0135  -9.0124  -8.9851  -8.9845  -8.9800  -8.9797
    -8.9764  -8.9764  -8.9752  -8.9752  -8.9741  -8.9735  -8.9730  -8.9725
    -8.9373  -8.9371  -8.9364  -8.9360  -8.9345  -8.9340  -8.9323  -8.9313
    -8.9298  -8.9288  -8.9288  -8.9277  -8.9268  -8.9267  -8.9260  -8.9252
    -5.9130  -5.8771  -5.6446  -5.5446  -5.3207  -5.1877  -5.0569  -5.0516
    -5.0153  -5.0066  -4.9379  -4.9361  -4.9303  -4.9108  -4.8967  -4.8423
    -4.8360  -4.8013  -4.6189  -4.5726  -0.5104  -0.4770  -0.4666  -0.4513
    -0.4157  -0.4020   0.0098   0.0833   0.2109   0.2226   0.2876   0.4288
     0.4746   0.5031   0.6190   0.6421   0.7851   1.1100   1.6932   1.9354
     1.9897   2.2028   2.7245   2.7313   2.8410   2.8557   2.8901   3.1741
     3.1742   3.3060   3.3160   3.3543   3.4473   3.4601   3.8271   3.8410
     3.8741   3.8927   3.9029   3.9265   3.9663   4.0779   4.1025   4.1082
     4.1101   4.2188   4.2207   4.2259   4.2371   4.3354   4.3437   4.4607
     4.5392   4.5983   4.7525   4.8522   4.8876   4.9615   5.2290   5.2823
     7.3422   7.5915   7.7967   7.9677   8.1302   8.2137   8.2211   8.2575
     8.3158   8.3326   8.3534   8.4349   8.5280   8.5467   8.5518   8.8098
     8.8703   8.8959   9.1200   9.1635   9.8284   9.9280  10.0504  10.0551

 ------ SPIN DOWN ----------


          k = 0.0000 0.0000 0.0000 ( 17017 PWs)   bands (ev):

    -9.1012  -9.1009  -9.0847  -9.0846  -9.0421  -9.0417  -9.0322  -9.0317
    -9.0265  -9.0261  -8.9911  -8.9908  -8.9906  -8.9904  -8.9663  -8.9662
    -8.9659  -8.9659  -8.9620  -8.9615  -8.9564  -8.9563  -8.9556  -8.9555
    -8.9512  -8.9507  -8.9455  -8.9454  -8.9449  -8.9449  -8.9388  -8.9380
    -8.9264  -8.9262  -8.9249  -8.9248  -8.9241  -8.9233  -8.9187  -8.9187
    -6.6791  -6.6178  -6.3404  -6.0372  -6.0238  -5.4429  -5.4207  -4.8056
    -4.7043  -4.4572  -4.4528  -4.4429  -4.4410  -4.4115  -4.3883  -4.3814
    -4.3554  -4.3477  -4.3186  -4.3169  -0.9030  -0.9030  -0.8995  -0.8995
    -0.4710  -0.1458   0.0861   0.0861   0.1960   0.1960   0.2600   0.2601
     0.4069   1.3631   1.4114   2.3688   2.3688   2.4075   2.4075   2.5963
     2.6118   2.6191   2.6276   2.7911   2.8572   2.8620   2.8620   2.9210
     2.9210   2.9293   2.9656   2.9717   3.0068   3.2302   3.2302   3.2362
     3.2367   3.2367   3.2370   3.3489   3.3489   3.4204   3.4204   3.8244
     3.8244   3.8434   3.8434   4.2422   4.4910   4.4910   4.5116   4.5116
     4.6725   5.1287   5.1287   5.4507   5.4507   5.6873   5.7381   5.7381
     6.9015   7.0297   7.0514   7.0974   7.1801   7.3511   7.6135   7.6285
     7.6788   7.6788   7.7307   7.7606   7.7630   7.8437   7.9455   7.9785
     7.9985   8.1392   8.2558   8.2559   8.3500   8.4486   8.5580   8.5925

          k = 0.0000 0.0000 0.0667 ( 17041 PWs)   bands (ev):

    -9.1013  -9.1009  -9.0848  -9.0845  -9.0422  -9.0418  -9.0322  -9.0319
    -9.0265  -9.0261  -8.9913  -8.9911  -8.9907  -8.9905  -8.9663  -8.9662
    -8.9658  -8.9658  -8.9620  -8.9615  -8.9565  -8.9565  -8.9557  -8.9556
    -8.9510  -8.9505  -8.9456  -8.9455  -8.9449  -8.9449  -8.9389  -8.9383
    -8.9265  -8.9264  -8.9250  -8.9249  -8.9242  -8.9233  -8.9187  -8.9184
    -6.6735  -6.6281  -6.3019  -6.1746  -5.8533  -5.6484  -5.2110  -4.9662
    -4.5741  -4.4571  -4.4528  -4.4524  -4.4436  -4.4404  -4.3890  -4.3807
    -4.3562  -4.3472  -4.3194  -4.3168  -0.9029  -0.9029  -0.8996  -0.8996
    -0.4308  -0.2344   0.0866   0.0866   0.1940   0.1941   0.2614   0.2614
     0.5647   0.9833   1.8424   2.3150   2.3150   2.3281   2.5168   2.5168
     2.5624   2.5733   2.6867   2.7058   2.7058   2.7066   2.8323   2.8344
     3.0666   3.0666   3.1013   3.1034   3.1912   3.1912   3.2001   3.2006
     3.2458   3.2458   3.2963   3.2964   3.3073   3.5015   3.5015   3.6640
     3.6640   3.9139   4.0349   4.0349   4.2610   4.2610   4.7422   4.7422
     5.0029   5.0029   5.0053   5.4739   5.5359   5.5359   5.6999   5.6999
     6.9936   7.1031   7.1216   7.1726   7.2049   7.3684   7.4059   7.4713
     7.5588   7.6594   7.7024   7.7618   7.7618   7.8233   7.9673   8.0112
     8.0112   8.1816   8.2620   8.2661   8.3532   8.4815   8.6453   8.8891

          k = 0.0000 0.3333 0.0000 ( 17002 PWs)   bands (ev):

    -9.0888  -9.0885  -9.0789  -9.0787  -9.0341  -9.0338  -9.0258  -9.0257
    -9.0241  -9.0238  -9.0110  -9.0106  -8.9862  -8.9859  -8.9743  -8.9740
    -8.9702  -8.9698  -8.9695  -8.9694  -8.9682  -8.9679  -8.9656  -8.9655
    -8.9434  -8.9429  -8.9413  -8.9411  -8.9394  -8.9391  -8.9360  -8.9354
    -8.9288  -8.9286  -8.9284  -8.9280  -8.9269  -8.9263  -8.9236  -8.9234
    -6.2784  -6.2194  -5.9852  -5.7088  -5.6946  -5.2252  -5.1922  -5.1788
    -5.1721  -5.0809  -4.9093  -4.8980  -4.6840  -4.6586  -4.6499  -4.5812
    -4.4934  -4.4057  -4.3762  -4.3657  -0.6327  -0.6306  -0.3776  -0.2650
    -0.0699  -0.0553   0.3129   0.3777   0.5265   0.5317   0.8261   0.8292
     0.8293   0.9563   1.0602   1.6589   1.7065   1.9627   1.9653   1.9878
     2.0306   2.4598   2.4651   2.4986   2.5130   2.5229   2.5281   2.6053
     2.7056   2.7110   2.7680   2.8697   2.8837   3.1619   3.1990   3.2180
     3.2457   3.3368   3.4867   3.5251   3.5265   3.5556   3.6525   3.6547
     3.7019   3.7047   3.8898   3.8901   4.0006   4.0066   4.1606   4.1633
     4.2479   4.4053   4.7484   4.7853   5.0888   5.0908   5.2067   5.2333
     7.4780   8.0198   8.1677   8.1831   8.2180   8.2641   8.3988   8.4350
     8.5002   8.5620   8.7414   8.8469   8.9247   8.9365   8.9819   9.0328
     9.0917   9.1085   9.1236   9.3192   9.3862   9.3961   9.4026   9.5274

          k = 0.0000 0.3333 0.0667 ( 17008 PWs)   bands (ev):

    -9.0888  -9.0885  -9.0789  -9.0788  -9.0341  -9.0338  -9.0258  -9.0257
    -9.0242  -9.0238  -9.0110  -9.0106  -8.9861  -8.9859  -8.9744  -8.9741
    -8.9702  -8.9699  -8.9696  -8.9694  -8.9682  -8.9680  -8.9656  -8.9655
    -8.9433  -8.9429  -8.9413  -8.9411  -8.9394  -8.9392  -8.9359  -8.9352
    -8.9288  -8.9287  -8.9282  -8.9279  -8.9269  -8.9263  -8.9236  -8.9235
    -6.2728  -6.2302  -5.9495  -5.8308  -5.5445  -5.3671  -5.2199  -5.1912
    -5.0556  -4.9994  -4.9765  -4.8205  -4.7998  -4.7354  -4.5837  -4.5174
    -4.4944  -4.4038  -4.3964  -4.3694  -0.6330  -0.6303  -0.3683  -0.2793
    -0.0696  -0.0559   0.3165   0.4350   0.4833   0.5804   0.6173   0.8067
     0.9718   1.0548   1.0777   1.3864   1.9025   1.9323   1.9857   2.0846
     2.1517   2.2540   2.3498   2.3640   2.4866   2.4980   2.5836   2.7008
     2.7084   2.7843   2.9234   2.9556   2.9593   2.9675   3.0970   3.2132
     3.2196   3.3409   3.4334   3.4952   3.5948   3.6563   3.6731   3.7465
     3.7497   3.7820   3.8202   3.8234   3.9211   3.9631   4.0082   4.0558
     4.4972   4.5635   4.7288   4.7615   4.9162   5.0436   5.2623   5.2953
     7.5690   7.8335   7.9836   8.0701   8.3797   8.4462   8.4857   8.5071
     8.5817   8.6885   8.7470   8.7960   8.8746   8.8864   8.9146   9.0040
     9.0597   9.0840   9.1337   9.2427   9.2971   9.3120   9.5082   9.5303

          k = 0.3333 0.3333 0.0000 ( 16953 PWs)   bands (ev):

    -9.0815  -9.0811  -9.0760  -9.0759  -9.0408  -9.0396  -9.0341  -9.0327
    -9.0160  -9.0144  -9.0135  -9.0124  -8.9849  -8.9847  -8.9804  -8.9798
    -8.9764  -8.9764  -8.9753  -8.9748  -8.9739  -8.9738  -8.9729  -8.9727
    -8.9376  -8.9367  -8.9367  -8.9360  -8.9343  -8.9341  -8.9322  -8.9319
    -8.9298  -8.9289  -8.9287  -8.9285  -8.9270  -8.9261  -8.9260  -8.9252
    -5.9180  -5.8676  -5.6736  -5.4487  -5.4360  -5.0663  -5.0572  -5.0512
    -5.0473  -5.0166  -5.0047  -4.9388  -4.9303  -4.9040  -4.9013  -4.8415
    -4.8371  -4.7461  -4.6548  -4.5603  -0.5093  -0.4699  -0.4590  -0.4522
    -0.4250  -0.4121   0.0381   0.0389   0.2334   0.2421   0.2878   0.4301
     0.4611   0.5491   0.6074   0.6444   0.6678   1.3063   1.4876   1.9126
     2.0288   2.4826   2.5476   2.6825   2.6852   2.9188   2.9643   3.0735
     3.1136   3.3948   3.4060   3.4140   3.4243   3.6940   3.7367   3.8033
     3.8076   3.8206   3.9151   3.9624   3.9865   4.0103   4.0104   4.0178
     4.0441   4.2819   4.2896   4.3086   4.3163   4.3280   4.3377   4.4298
     4.5203   4.7276   4.7342   4.8051   4.8113   5.0031   5.2142   5.2893
     7.4318   7.4497   7.8450   8.0432   8.1289   8.2471   8.2699   8.2719
     8.2872   8.2955   8.3074   8.3915   8.4212   8.5763   8.5766   8.7477
     8.7625   8.9401   9.2923   9.3485   9.7443   9.7987  10.0333  10.0538

          k = 0.3333 0.3333 0.0667 ( 16938 PWs)   bands (ev):

    -9.0815  -9.0811  -9.0759  -9.0759  -9.0407  -9.0395  -9.0341  -9.0326
    -9.0160  -9.0145  -9.0135  -9.0124  -8.9849  -8.9847  -8.9803  -8.9797
    -8.9764  -8.9764  -8.9753  -8.9749  -8.9739  -8.9738  -8.9729  -8.9726
    -8.9375  -8.9367  -8.9367  -8.9360  -8.9343  -8.9341  -8.9320  -8.9317
    -8.9298  -8.9289  -8.9287  -8.9285  -8.9269  -8.9261  -8.9260  -8.9251
    -5.9130  -5.8771  -5.6446  -5.5447  -5.3208  -5.1877  -5.0569  -5.0517
    -5.0152  -5.0065  -4.9379  -4.9361  -4.9302  -4.9109  -4.8967  -4.8424
    -4.8360  -4.8013  -4.6189  -4.5726  -0.5104  -0.4770  -0.4666  -0.4513
    -0.4157  -0.4020   0.0098   0.0833   0.2109   0.2226   0.2875   0.4289
     0.4747   0.5032   0.6190   0.6421   0.7851   1.1100   1.6932   1.9354
     1.9897   2.2028   2.7245   2.7313   2.8409   2.8557   2.8901   3.1741
     3.1742   3.3060   3.3161   3.3543   3.4473   3.4601   3.8271   3.8410
     3.8742   3.8927   3.9029   3.9265   3.9663   4.0779   4.1025   4.1082
     4.1101   4.2188   4.2207   4.2259   4.2371   4.3354   4.3437   4.4607
     4.5392   4.5983   4.7525   4.8522   4.8876   4.9615   5.2290   5.2823
     7.3422   7.5915   7.7967   7.9677   8.1302   8.2137   8.2211   8.2576
     8.3158   8.3326   8.3534   8.4349   8.5280   8.5467   8.5518   8.8098
     8.8703   8.8960   9.1200   9.1636   9.8284   9.9280  10.0507  10.0558

          k = 0.3333-0.3333 0.0000 ( 16953 PWs)   bands (ev):

    -9.0815  -9.0814  -9.0759  -9.0757  -9.0408  -9.0390  -9.0340  -9.0332
    -9.0160  -9.0147  -9.0135  -9.0124  -8.9851  -8.9845  -8.9802  -8.9798
    -8.9764  -8.9763  -8.9753  -8.9751  -8.9741  -8.9734  -8.9731  -8.9725
    -8.9373  -8.9371  -8.9365  -8.9360  -8.9345  -8.9341  -8.9325  -8.9315
    -8.9298  -8.9288  -8.9288  -8.9277  -8.9269  -8.9268  -8.9260  -8.9252
    -5.9180  -5.8676  -5.6736  -5.4487  -5.4360  -5.0663  -5.0572  -5.0513
    -5.0473  -5.0166  -5.0047  -4.9388  -4.9303  -4.9040  -4.9013  -4.8415
    -4.8371  -4.7461  -4.6548  -4.5602  -0.5093  -0.4699  -0.4590  -0.4522
    -0.4250  -0.4121   0.0381   0.0390   0.2334   0.2421   0.2878   0.4301
     0.4611   0.5491   0.6074   0.6444   0.6678   1.3063   1.4876   1.9126
     2.0289   2.4826   2.5476   2.6825   2.6852   2.9188   2.9643   3.0735
     3.1136   3.3948   3.4060   3.4141   3.4243   3.6940   3.7367   3.8033
     3.8076   3.8207   3.9151   3.9624   3.9865   4.0102   4.0104   4.0178
     4.0441   4.2819   4.2896   4.3086   4.3163   4.3280   4.3377   4.4298
     4.5203   4.7276   4.7342   4.8052   4.8113   5.0031   5.2141   5.2893
     7.4318   7.4497   7.8450   8.0432   8.1289   8.2471   8.2699   8.2720
     8.2873   8.2955   8.3074   8.3915   8.4212   8.5763   8.5766   8.7477
     8.7624   8.9401   9.2923   9.3485   9.7443   9.7987  10.0333  10.0574

          k = 0.3333-0.3333 0.0667 ( 16938 PWs)   bands (ev):

    -9.0815  -9.0814  -9.0759  -9.0757  -9.0407  -9.0389  -9.0340  -9.0331
    -9.0160  -9.0147  -9.0135  -9.0124  -8.9851  -8.9845  -8.9801  -8.9797
    -8.9764  -8.9764  -8.9753  -8.9752  -8.9741  -8.9735  -8.9731  -8.9725
    -8.9373  -8.9371  -8.9365  -8.9360  -8.9345  -8.9340  -8.9323  -8.9313
    -8.9298  -8.9288  -8.9288  -8.9277  -8.9269  -8.9267  -8.9260  -8.9252
    -5.9130  -5.8771  -5.6446  -5.5447  -5.3207  -5.1876  -5.0569  -5.0517
    -5.0153  -5.0065  -4.9379  -4.9361  -4.9302  -4.9109  -4.8967  -4.8423
    -4.8360  -4.8013  -4.6189  -4.5726  -0.5104  -0.4770  -0.4666  -0.4513
    -0.4157  -0.4020   0.0098   0.0833   0.2109   0.2226   0.2875   0.4289
     0.4747   0.5031   0.6190   0.6421   0.7851   1.1100   1.6932   1.9354
     1.9897   2.2028   2.7245   2.7313   2.8409   2.8557   2.8901   3.1741
     3.1742   3.3060   3.3161   3.3544   3.4473   3.4601   3.8271   3.8410
     3.8742   3.8927   3.9029   3.9265   3.9663   4.0779   4.1025   4.1082
     4.1101   4.2188   4.2207   4.2259   4.2371   4.3354   4.3437   4.4607
     4.5392   4.5983   4.7525   4.8522   4.8876   4.9615   5.2290   5.2823
     7.3422   7.5916   7.7967   7.9677   8.1302   8.2137   8.2211   8.2576
     8.3158   8.3326   8.3534   8.4349   8.5280   8.5467   8.5518   8.8098
     8.8703   8.8959   9.1200   9.1636   9.8284   9.9280  10.0507  10.0558

     the Fermi energy is     6.2491 ev

!    total energy              =   -6218.19883280 Ry

     total all-electron energy =   -127372.576660 Ry
     estimated scf accuracy    <       0.00000002 Ry
     smearing contrib. (-TS)   =       0.00000000 Ry
     internal energy E=F+TS    =   -6218.19883280 Ry

     The total energy is F=E-TS. E is the sum of the following terms:
     one-electron contribution =   -1748.44552756 Ry
     hartree contribution      =    1039.97892928 Ry
     xc contribution           =    -566.58328805 Ry
     ewald contribution        =    -517.81734311 Ry
     one-center paw contrib.   =   -4425.33160337 Ry

     total magnetization       =    -0.00 Bohr mag/cell
     absolute magnetization    =     0.00 Bohr mag/cell

     convergence has been achieved in  20 iterations

     Forces acting on atoms (cartesian axes, Ry/au):

     atom    1 type  2   force =     0.00000002    0.00000002    0.00011395
     atom    2 type  2   force =     0.00000001   -0.00000001   -0.01888340
     atom    3 type  2   force =    -0.00000002   -0.00000002    0.00011395
     atom    4 type  2   force =    -0.00000001    0.00000001   -0.01888340
     atom    5 type  2   force =     0.00000001    0.00000001   -0.00013881
     atom    6 type  2   force =     0.00000003    0.00000003   -0.00000666
     atom    7 type  2   force =     0.00000002    0.00000002   -0.00003111
     atom    8 type  2   force =     0.00000005    0.00000005   -0.00000639
     atom    9 type  2   force =    -0.00000007    0.00000007   -0.00000824
     atom   10 type  2   force =    -0.00000007    0.00000007   -0.01873326
     atom   11 type  2   force =     0.00000003   -0.00000003    0.01870407
     atom   12 type  2   force =    -0.00000001    0.00000001    0.01885274
     atom   13 type  2   force =    -0.00000001   -0.00000001   -0.00013881
     atom   14 type  2   force =    -0.00000003   -0.00000003   -0.00000666
     atom   15 type  2   force =    -0.00000002   -0.00000002   -0.00003111
     atom   16 type  2   force =    -0.00000005   -0.00000005   -0.00000639
     atom   17 type  2   force =     0.00000007   -0.00000007   -0.00000824
     atom   18 type  2   force =     0.00000007   -0.00000007   -0.01873326
     atom   19 type  2   force =    -0.00000003    0.00000003    0.01870407
     atom   20 type  2   force =     0.00000001   -0.00000001    0.01885274
     atom   21 type  1   force =     0.00000000    0.00000000    0.00001201
     atom   22 type  1   force =     0.00000000    0.00000000    0.00001198
     atom   23 type  1   force =     0.00000000    0.00000000    0.00084693
     atom   24 type  1   force =     0.00000000    0.00000000    0.00084693
     atom   25 type  3   force =     0.00000000    0.00000000    0.00166917
     atom   26 type  3   force =     0.00000000    0.00000000    0.00166844
     atom   27 type  3   force =     0.00000000    0.00000000   -0.00162963
     atom   28 type  3   force =     0.00000000    0.00000000   -0.00162963
     atom   29 type  1   force =     0.00000000    0.00000000   -0.00081560
     atom   30 type  1   force =     0.00000000    0.00000000   -0.00081555
     atom   31 type  1   force =     0.00000000    0.00000000    0.00078931
     atom   32 type  1   force =     0.00000000    0.00000000    0.00078931
     atom   33 type  3   force =     0.00000000    0.00000000    0.00169767
     atom   34 type  3   force =     0.00000000    0.00000000    0.00169604
     atom   35 type  3   force =     0.00000000    0.00000000   -0.00152245
     atom   36 type  3   force =     0.00000000    0.00000000   -0.00152245
     atom   37 type  1   force =     0.00000000    0.00000000   -0.00087213
     atom   38 type  1   force =     0.00000000    0.00000000   -0.00087213
     atom   39 type  1   force =     0.00000000    0.00000000   -0.00003699
     atom   40 type  1   force =     0.00000000    0.00000000   -0.00003699

     Total force =     0.053408     Total SCF correction =     0.000208


     Computing stress (Cartesian axis) and pressure

          total   stress  (Ry/bohr**3)                   (kbar)     P=       33.56
   0.00023322   0.00000000   0.00000000           34.31        0.00        0.00
   0.00000000   0.00023322   0.00000000            0.00       34.31        0.00
   0.00000000   0.00000000   0.00021806            0.00        0.00       32.08


     Writing all to output data dir ./outputs/gaalas_sl.save/

     init_run     :     64.57s CPU     74.42s WALL (       1 calls)
     electrons    :   2847.48s CPU   2963.54s WALL (       1 calls)
     forces       :     33.84s CPU      1.78s WALL (       1 calls)
     stress       :    104.29s CPU    143.93s WALL (       1 calls)

     Called by init_run:
     wfcinit      :     56.51s CPU     64.25s WALL (       1 calls)
     potinit      :      5.88s CPU      7.35s WALL (       1 calls)
     hinit0       :      1.17s CPU      1.48s WALL (       1 calls)

     Called by electrons:
     c_bands      :   2406.78s CPU   2562.13s WALL (      20 calls)
     sum_band     :    293.00s CPU    327.49s WALL (      20 calls)
     v_of_rho     :      4.32s CPU      4.60s WALL (      21 calls)
     newd         :     14.30s CPU      2.14s WALL (      21 calls)
     PAW_pot      :    134.48s CPU     74.18s WALL (      21 calls)
     mix_rho      :      1.16s CPU      1.21s WALL (      20 calls)

     Called by c_bands:
     init_us_2    :     11.15s CPU     -5.45s WALL (     688 calls)
     init_us_2:cp :     11.14s CPU     -5.45s WALL (     688 calls)
     cegterg      :   2362.14s CPU   2532.47s WALL (     320 calls)

     Called by *egterg:
     cdiaghg      :    129.33s CPU     95.49s WALL (    1753 calls)
     h_psi        :   1251.24s CPU   1552.98s WALL (    1769 calls)
     s_psi        :    373.27s CPU    332.72s WALL (    1769 calls)
     g_psi        :      8.01s CPU     43.49s WALL (    1433 calls)

     Called by h_psi:
     h_psi:calbec :    382.07s CPU    585.43s WALL (    1769 calls)
     vloc_psi     :    485.16s CPU    686.54s WALL (    1769 calls)
     add_vuspsi   :    377.39s CPU    271.28s WALL (    1769 calls)

     General routines
     calbec       :    567.30s CPU    791.05s WALL (    2169 calls)
     fft          :      2.12s CPU      2.25s WALL (     483 calls)
     ffts         :      0.13s CPU      0.13s WALL (      40 calls)
     fftw         :    490.04s CPU    673.99s WALL (  274386 calls)

     Parallel routines

     PWSCF        :  50m51.38s CPU  53m 5.43s WALL


   This run was terminated on:  23:34: 3   5Jan2025            

=------------------------------------------------------------------------------=
   JOB DONE.
=------------------------------------------------------------------------------=
